 Entering Gaussian System, Link 0=g16
 Input=conformer_0000.com
 Output=conformer_0000.log
 Initial command:
 /shared/centos7/gaussian/g16/l1.exe "/scratch/harris.se/guassian_scratch/Gau-49054.inp" -scrdir="/scratch/harris.se/guassian_scratch/"
 Entering Link 1 = /shared/centos7/gaussian/g16/l1.exe PID=     49055.
  
 Copyright (c) 1988,1990,1992,1993,1995,1998,2003,2009,2016,
            Gaussian, Inc.  All Rights Reserved.
  
 This is part of the Gaussian(R) 16 program.  It is based on
 the Gaussian(R) 09 system (copyright 2009, Gaussian, Inc.),
 the Gaussian(R) 03 system (copyright 2003, Gaussian, Inc.),
 the Gaussian(R) 98 system (copyright 1998, Gaussian, Inc.),
 the Gaussian(R) 94 system (copyright 1995, Gaussian, Inc.),
 the Gaussian 92(TM) system (copyright 1992, Gaussian, Inc.),
 the Gaussian 90(TM) system (copyright 1990, Gaussian, Inc.),
 the Gaussian 88(TM) system (copyright 1988, Gaussian, Inc.),
 the Gaussian 86(TM) system (copyright 1986, Carnegie Mellon
 University), and the Gaussian 82(TM) system (copyright 1983,
 Carnegie Mellon University). Gaussian is a federally registered
 trademark of Gaussian, Inc.
  
 This software contains proprietary and confidential information,
 including trade secrets, belonging to Gaussian, Inc.
  
 This software is provided under written license and may be
 used, copied, transmitted, or stored only in accord with that
 written license.
  
 The following legend is applicable only to US Government
 contracts under FAR:
  
                    RESTRICTED RIGHTS LEGEND
  
 Use, reproduction and disclosure by the US Government is
 subject to restrictions as set forth in subparagraphs (a)
 and (c) of the Commercial Computer Software - Restricted
 Rights clause in FAR 52.227-19.
  
 Gaussian, Inc.
 340 Quinnipiac St., Bldg. 40, Wallingford CT 06492
  
  
 ---------------------------------------------------------------
 Warning -- This program may not be used in any manner that
 competes with the business of Gaussian, Inc. or will provide
 assistance to any competitor of Gaussian, Inc.  The licensee
 of this program is prohibited from giving any competitor of
 Gaussian, Inc. access to this program.  By using this program,
 the user acknowledges that Gaussian, Inc. is engaged in the
 business of creating and licensing software in the field of
 computational chemistry and represents and warrants to the
 licensee that it is not a competitor of Gaussian, Inc. and that
 it will not use this program in any manner prohibited above.
 ---------------------------------------------------------------
  

 Cite this work as:
 Gaussian 16, Revision A.03,
 M. J. Frisch, G. W. Trucks, H. B. Schlegel, G. E. Scuseria, 
 M. A. Robb, J. R. Cheeseman, G. Scalmani, V. Barone, 
 G. A. Petersson, H. Nakatsuji, X. Li, M. Caricato, A. V. Marenich, 
 J. Bloino, B. G. Janesko, R. Gomperts, B. Mennucci, H. P. Hratchian, 
 J. V. Ortiz, A. F. Izmaylov, J. L. Sonnenberg, D. Williams-Young, 
 F. Ding, F. Lipparini, F. Egidi, J. Goings, B. Peng, A. Petrone, 
 T. Henderson, D. Ranasinghe, V. G. Zakrzewski, J. Gao, N. Rega, 
 G. Zheng, W. Liang, M. Hada, M. Ehara, K. Toyota, R. Fukuda, 
 J. Hasegawa, M. Ishida, T. Nakajima, Y. Honda, O. Kitao, H. Nakai, 
 T. Vreven, K. Throssell, J. A. Montgomery, Jr., J. E. Peralta, 
 F. Ogliaro, M. J. Bearpark, J. J. Heyd, E. N. Brothers, K. N. Kudin, 
 V. N. Staroverov, T. A. Keith, R. Kobayashi, J. Normand, 
 K. Raghavachari, A. P. Rendell, J. C. Burant, S. S. Iyengar, 
 J. Tomasi, M. Cossi, J. M. Millam, M. Klene, C. Adamo, R. Cammi, 
 J. W. Ochterski, R. L. Martin, K. Morokuma, O. Farkas, 
 J. B. Foresman, and D. J. Fox, Gaussian, Inc., Wallingford CT, 2016.
 
 ******************************************
 Gaussian 16:  EM64L-G16RevA.03 25-Dec-2016
                31-Mar-2022 
 ******************************************
 %mem=5GB
 %nprocshared=24
 Will use up to   24 processors via shared memory.
 ----------------------------------------------------------------------
 #P m062x/cc-pVTZ opt=(calcfc,maxcycles=900,) freq IOP(7/33=1,2/16=3) s
 cf=(maxcycle=900)
 ----------------------------------------------------------------------
 1/6=900,10=4,18=20,19=15,26=3,38=1/1,3;
 2/9=110,12=2,16=3,17=6,18=5,40=1/2;
 3/5=16,6=1,11=2,25=1,30=1,71=2,74=-55,140=1/1,2,3;
 4//1;
 5/5=2,7=900,38=5/2;
 8/6=4,10=90,11=11/1;
 11/6=1,8=1,9=11,15=111,16=1/1,2,10;
 10/6=1,13=1/2;
 6/7=2,8=2,9=2,10=2,28=1/1;
 7/10=1,18=20,25=1,33=1/1,2,3,16;
 1/6=900,10=4,18=20,19=15,26=3/3(2);
 2/9=110,16=3/2;
 99//99;
 2/9=110,16=3/2;
 3/5=16,6=1,11=2,25=1,30=1,71=1,74=-55/1,2,3;
 4/5=5,16=3,69=1/1;
 5/5=2,7=900,38=5/2;
 7/33=1/1,2,3,16;
 1/6=900,18=20,19=15,26=3/3(-5);
 2/9=110,16=3/2;
 6/7=2,8=2,9=2,10=2,19=2,28=1/1;
 99/9=1/99;
 Leave Link    1 at Thu Mar 31 22:20:39 2022, MaxMem=   671088640 cpu:              12.2 elap:               0.8
 (Enter /shared/centos7/gaussian/g16/l101.exe)
 ------------------------------
 Gaussian input prepared by ASE
 ------------------------------
 Symbolic Z-matrix:
 Charge =  0 Multiplicity = 1
 O                    -0.0057    0.3852    0. 
 H                    -0.7961   -0.1947    0. 
 H                     0.8018   -0.1905    0. 
 
 ITRead=  0  0  0
 MicOpt= -1 -1 -1
 NAtoms=      3 NQM=        3 NQMF=       0 NMMI=      0 NMMIF=      0
                NMic=       0 NMicF=      0.
                    Isotopes and Nuclear Properties:
 (Nuclear quadrupole moments (NQMom) in fm**2, nuclear magnetic moments (NMagM)
  in nuclear magnetons)

  Atom         1           2           3
 IAtWgt=          16           1           1
 AtmWgt=  15.9949146   1.0078250   1.0078250
 NucSpn=           0           1           1
 AtZEff=  -0.0000000  -0.0000000  -0.0000000
 NQMom=    0.0000000   0.0000000   0.0000000
 NMagM=    0.0000000   2.7928460   2.7928460
 AtZNuc=   8.0000000   1.0000000   1.0000000
 Leave Link  101 at Thu Mar 31 22:20:40 2022, MaxMem=   671088640 cpu:               5.5 elap:               0.4
 (Enter /shared/centos7/gaussian/g16/l103.exe)

 GradGradGradGradGradGradGradGradGradGradGradGradGradGradGradGradGradGrad
 Berny optimization.
 Initialization pass.
                           ----------------------------
                           !    Initial Parameters    !
                           ! (Angstroms and Degrees)  !
 --------------------------                            --------------------------
 ! Name  Definition              Value          Derivative Info.                !
 --------------------------------------------------------------------------------
 ! R1    R(1,2)                  0.9803         calculate D2E/DX2 analytically  !
 ! R2    R(1,3)                  0.9917         calculate D2E/DX2 analytically  !
 ! A1    A(2,1,3)              108.2466         calculate D2E/DX2 analytically  !
 --------------------------------------------------------------------------------
 Trust Radius=3.00D-01 FncErr=1.00D-07 GrdErr=1.00D-06 EigMax=2.50D+02 EigMin=1.00D-04
 Number of steps in this run=    100 maximum allowed number of steps=    100.
 GradGradGradGradGradGradGradGradGradGradGradGradGradGradGradGradGradGrad

 Leave Link  103 at Thu Mar 31 22:20:40 2022, MaxMem=   671088640 cpu:               0.7 elap:               0.1
 (Enter /shared/centos7/gaussian/g16/l202.exe)
                          Input orientation:                          
 ---------------------------------------------------------------------
 Center     Atomic      Atomic             Coordinates (Angstroms)
 Number     Number       Type             X           Y           Z
 ---------------------------------------------------------------------
      1          8           0       -0.005700    0.385200    0.000000
      2          1           0       -0.796100   -0.194700    0.000000
      3          1           0        0.801800   -0.190500    0.000000
 ---------------------------------------------------------------------
                    Distance matrix (angstroms):
                    1          2          3
     1  O    0.000000
     2  H    0.980314   0.000000
     3  H    0.991709   1.597906   0.000000
 Stoichiometry    H2O
 Framework group  CS[SG(H2O)]
 Deg. of freedom     3
 Full point group                 CS      NOp   2
 Largest Abelian subgroup         CS      NOp   2
 Largest concise Abelian subgroup C1      NOp   1
                         Standard orientation:                         
 ---------------------------------------------------------------------
 Center     Atomic      Atomic             Coordinates (Angstroms)
 Number     Number       Type             X           Y           Z
 ---------------------------------------------------------------------
      1          8           0        0.000000    0.115573   -0.000000
      2          1           0        0.798894   -0.452569   -0.000000
      3          1           0       -0.798894   -0.472012    0.000000
 ---------------------------------------------------------------------
 Rotational constants (GHZ):         845.7020469         392.7390484         268.1921800
 Leave Link  202 at Thu Mar 31 22:20:40 2022, MaxMem=   671088640 cpu:               4.7 elap:               0.3
 (Enter /shared/centos7/gaussian/g16/l301.exe)
 Standard basis: CC-pVTZ (5D, 7F)
 Ernie: Thresh=  0.10000D-02 Tol=  0.10000D-05 Strict=F.
 Ernie:  3 primitive shells out of 42 were deleted.
 There are    46 symmetry adapted cartesian basis functions of A'  symmetry.
 There are    19 symmetry adapted cartesian basis functions of A"  symmetry.
 There are    40 symmetry adapted basis functions of A'  symmetry.
 There are    18 symmetry adapted basis functions of A"  symmetry.
    58 basis functions,    86 primitive gaussians,    65 cartesian basis functions
     5 alpha electrons        5 beta electrons
       nuclear repulsion energy         8.9184085576 Hartrees.
 IExCor= 4336 DFT=T Ex+Corr=M062X ExCW=0 ScaHFX=  0.540000
 ScaDFX=  1.000000  1.000000  1.000000  1.000000 ScalE2=  1.000000  1.000000
 IRadAn=      5 IRanWt=     -1 IRanGd=            0 ICorTp=0 IEmpDi=  4
 NAtoms=    3 NActive=    3 NUniq=    3 SFac= 1.00D+00 NAtFMM=   60 NAOKFM=F Big=F
 Integral buffers will be    131072 words long.
 Raffenetti 2 integral format.
 Two-electron integral symmetry is turned on.
 Leave Link  301 at Thu Mar 31 22:20:40 2022, MaxMem=   671088640 cpu:               2.1 elap:               0.2
 (Enter /shared/centos7/gaussian/g16/l302.exe)
 NPDir=0 NMtPBC=     1 NCelOv=     1 NCel=       1 NClECP=     1 NCelD=      1
         NCelK=      1 NCelE2=     1 NClLst=     1 CellRange=     0.0.
 One-electron integrals computed using PRISM.
 One-electron integral symmetry used in STVInt
 NBasis=    58 RedAO= T EigKep=  2.73D-03  NBF=    40    18
 NBsUse=    58 1.00D-06 EigRej= -1.00D+00 NBFU=    40    18
 Precomputing XC quadrature grid using
 IXCGrd= 4 IRadAn=           5 IRanWt=          -1 IRanGd=           0 AccXCQ= 0.00D+00.
 Generated NRdTot=       0 NPtTot=           0 NUsed=           0 NTot=          32
 NSgBfM=    65    65    65    65    65 MxSgAt=     3 MxSgA2=     3.
 Leave Link  302 at Thu Mar 31 22:20:42 2022, MaxMem=   671088640 cpu:              25.9 elap:               1.6
 (Enter /shared/centos7/gaussian/g16/l303.exe)
 DipDrv:  MaxL=1.
 Leave Link  303 at Thu Mar 31 22:20:42 2022, MaxMem=   671088640 cpu:               5.4 elap:               0.4
 (Enter /shared/centos7/gaussian/g16/l401.exe)
 ExpMin= 1.03D-01 ExpMax= 1.53D+04 ExpMxC= 5.22D+02 IAcc=3 IRadAn=         5 AccDes= 0.00D+00
 Harris functional with IExCor= 1009 and IRadAn=       5 diagonalized for initial guess.
 HarFok:  IExCor= 1009 AccDes= 0.00D+00 IRadAn=         5 IDoV= 1 UseB2=F ITyADJ=14
 ICtDFT=  3500011 ScaDFX=  1.000000  1.000000  1.000000  1.000000
 FoFCou: FMM=F IPFlag=           0 FMFlag=      100000 FMFlg1=           0
         NFxFlg=           0 DoJE=T BraDBF=F KetDBF=T FulRan=T
         wScrn=  0.000000 ICntrl=       500 IOpCl=  0 I1Cent=   200000004 NGrid=           0
         NMat0=    1 NMatS0=      1 NMatT0=    0 NMatD0=    1 NMtDS0=    0 NMtDT0=    0
 Petite list used in FoFCou.
 Harris En= -76.4188888378588    
 JPrj=0 DoOrth=F DoCkMO=F.
 Initial guess orbital symmetries:
       Occupied  (A') (A') (A') (A') (A")
       Virtual   (A') (A') (A') (A') (A') (A") (A') (A') (A") (A")
                 (A') (A') (A') (A') (A") (A") (A') (A') (A') (A')
                 (A') (A") (A') (A") (A") (A') (A') (A') (A") (A')
                 (A') (A") (A") (A') (A') (A") (A') (A') (A') (A')
                 (A") (A') (A") (A") (A') (A") (A') (A') (A") (A')
                 (A') (A') (A')
 The electronic state of the initial guess is 1-A'.
 Leave Link  401 at Thu Mar 31 22:20:44 2022, MaxMem=   671088640 cpu:              25.8 elap:               1.6
 (Enter /shared/centos7/gaussian/g16/l502.exe)
 Keep R1 ints in memory in symmetry-blocked form, NReq=22797014.
 FoFCou: FMM=F IPFlag=           0 FMFlag=           0 FMFlg1=           0
         NFxFlg=           0 DoJE=F BraDBF=F KetDBF=F FulRan=T
         wScrn=  0.000000 ICntrl=       600 IOpCl=  0 I1Cent=           0 NGrid=           0
         NMat0=    1 NMatS0=   1711 NMatT0=    0 NMatD0=    1 NMtDS0=    0 NMtDT0=    0
 Petite list used in FoFCou.
 Closed shell SCF:
 Using DIIS extrapolation, IDIIS=  1040.
 NGot=   671088640 LenX=   670322486 LenY=   670317820
 Requested convergence on RMS density matrix=1.00D-08 within 900 cycles.
 Requested convergence on MAX density matrix=1.00D-06.
 Requested convergence on             energy=1.00D-06.
 No special actions if energy rises.
 Integral accuracy reduced to 1.0D-05 until final iterations.

 Cycle   1  Pass 0  IDiag  1:
 E= -76.3464522288728    
 DIIS: error= 5.81D-02 at cycle   1 NSaved=   1.
 NSaved= 1 IEnMin= 1 EnMin= -76.3464522288728     IErMin= 1 ErrMin= 5.81D-02
 ErrMax= 5.81D-02  0.00D+00 EMaxC= 1.00D-01 BMatC= 1.20D-01 BMatP= 1.20D-01
 IDIUse=3 WtCom= 4.19D-01 WtEn= 5.81D-01
 Coeff-Com:  0.100D+01
 Coeff-En:   0.100D+01
 Coeff:      0.100D+01
 Gap=     0.314 Goal=   None    Shift=    0.000
 GapD=    0.314 DampG=1.000 DampE=0.500 DampFc=0.5000 IDamp=-1.
 Damping current iteration by 5.00D-01
 RMSDP=4.89D-03 MaxDP=9.66D-02              OVMax= 1.62D-01

 Cycle   2  Pass 0  IDiag  1:
 E= -76.3810391528978     Delta-E=       -0.034586924025 Rises=F Damp=T
 DIIS: error= 1.32D-02 at cycle   2 NSaved=   2.
 NSaved= 2 IEnMin= 2 EnMin= -76.3810391528978     IErMin= 2 ErrMin= 1.32D-02
 ErrMax= 1.32D-02  0.00D+00 EMaxC= 1.00D-01 BMatC= 5.69D-03 BMatP= 1.20D-01
 IDIUse=3 WtCom= 8.68D-01 WtEn= 1.32D-01
 Coeff-Com:  0.749D-01 0.925D+00
 Coeff-En:   0.129D+00 0.871D+00
 Coeff:      0.820D-01 0.918D+00
 Gap=     0.442 Goal=   None    Shift=    0.000
 RMSDP=6.29D-04 MaxDP=1.06D-02 DE=-3.46D-02 OVMax= 8.30D-02

 Cycle   3  Pass 0  IDiag  1:
 E= -76.4234013473091     Delta-E=       -0.042362194411 Rises=F Damp=F
 DIIS: error= 7.85D-04 at cycle   3 NSaved=   3.
 NSaved= 3 IEnMin= 3 EnMin= -76.4234013473091     IErMin= 3 ErrMin= 7.85D-04
 ErrMax= 7.85D-04  0.00D+00 EMaxC= 1.00D-01 BMatC= 1.72D-05 BMatP= 5.69D-03
 IDIUse=3 WtCom= 9.92D-01 WtEn= 7.85D-03
 Coeff-Com:  0.212D-02-0.193D-02 0.100D+01
 Coeff-En:   0.000D+00 0.000D+00 0.100D+01
 Coeff:      0.210D-02-0.191D-02 0.100D+01
 Gap=     0.449 Goal=   None    Shift=    0.000
 RMSDP=5.49D-05 MaxDP=7.57D-04 DE=-4.24D-02 OVMax= 1.74D-03

 Cycle   4  Pass 0  IDiag  1:
 E= -76.4234182096811     Delta-E=       -0.000016862372 Rises=F Damp=F
 DIIS: error= 2.22D-04 at cycle   4 NSaved=   4.
 NSaved= 4 IEnMin= 4 EnMin= -76.4234182096811     IErMin= 4 ErrMin= 2.22D-04
 ErrMax= 2.22D-04  0.00D+00 EMaxC= 1.00D-01 BMatC= 2.36D-06 BMatP= 1.72D-05
 IDIUse=3 WtCom= 9.98D-01 WtEn= 2.22D-03
 Coeff-Com:  0.159D-02-0.717D-02 0.166D+00 0.840D+00
 Coeff-En:   0.000D+00 0.000D+00 0.000D+00 0.100D+01
 Coeff:      0.158D-02-0.716D-02 0.165D+00 0.840D+00
 Gap=     0.449 Goal=   None    Shift=    0.000
 RMSDP=1.28D-05 MaxDP=2.46D-04 DE=-1.69D-05 OVMax= 3.59D-04

 Cycle   5  Pass 0  IDiag  1:
 E= -76.4234196353778     Delta-E=       -0.000001425697 Rises=F Damp=F
 DIIS: error= 4.51D-05 at cycle   5 NSaved=   5.
 NSaved= 5 IEnMin= 5 EnMin= -76.4234196353778     IErMin= 5 ErrMin= 4.51D-05
 ErrMax= 4.51D-05  0.00D+00 EMaxC= 1.00D-01 BMatC= 5.06D-08 BMatP= 2.36D-06
 IDIUse=1 WtCom= 1.00D+00 WtEn= 0.00D+00
 Coeff-Com:  0.154D-03-0.161D-03-0.404D-01-0.641D-01 0.110D+01
 Coeff:      0.154D-03-0.161D-03-0.404D-01-0.641D-01 0.110D+01
 Gap=     0.450 Goal=   None    Shift=    0.000
 RMSDP=4.22D-06 MaxDP=6.80D-05 DE=-1.43D-06 OVMax= 1.65D-04

 Initial convergence to 1.0D-05 achieved.  Increase integral accuracy.
 Cycle   6  Pass 1  IDiag  1:
 E= -76.4234255575592     Delta-E=       -0.000005922181 Rises=F Damp=F
 DIIS: error= 4.60D-05 at cycle   1 NSaved=   1.
 NSaved= 1 IEnMin= 1 EnMin= -76.4234255575592     IErMin= 1 ErrMin= 4.60D-05
 ErrMax= 4.60D-05  0.00D+00 EMaxC= 1.00D-01 BMatC= 5.76D-08 BMatP= 5.76D-08
 IDIUse=1 WtCom= 1.00D+00 WtEn= 0.00D+00
 Coeff-Com:  0.100D+01
 Coeff:      0.100D+01
 Gap=     0.450 Goal=   None    Shift=    0.000
 RMSDP=4.22D-06 MaxDP=6.80D-05 DE=-5.92D-06 OVMax= 4.35D-05

 Cycle   7  Pass 1  IDiag  1:
 E= -76.4234255842786     Delta-E=       -0.000000026719 Rises=F Damp=F
 DIIS: error= 5.83D-06 at cycle   2 NSaved=   2.
 NSaved= 2 IEnMin= 2 EnMin= -76.4234255842786     IErMin= 2 ErrMin= 5.83D-06
 ErrMax= 5.83D-06  0.00D+00 EMaxC= 1.00D-01 BMatC= 1.21D-09 BMatP= 5.76D-08
 IDIUse=1 WtCom= 1.00D+00 WtEn= 0.00D+00
 Coeff-Com: -0.101D-01 0.101D+01
 Coeff:     -0.101D-01 0.101D+01
 Gap=     0.450 Goal=   None    Shift=    0.000
 RMSDP=5.08D-07 MaxDP=1.01D-05 DE=-2.67D-08 OVMax= 1.42D-05

 Cycle   8  Pass 1  IDiag  1:
 E= -76.4234255842364     Delta-E=        0.000000000042 Rises=F Damp=F
 DIIS: error= 6.26D-06 at cycle   3 NSaved=   3.
 NSaved= 3 IEnMin= 2 EnMin= -76.4234255842786     IErMin= 2 ErrMin= 5.83D-06
 ErrMax= 6.26D-06  0.00D+00 EMaxC= 1.00D-01 BMatC= 1.32D-09 BMatP= 1.21D-09
 IDIUse=1 WtCom= 1.00D+00 WtEn= 0.00D+00
 Coeff-Com: -0.264D-01 0.527D+00 0.499D+00
 Coeff:     -0.264D-01 0.527D+00 0.499D+00
 Gap=     0.450 Goal=   None    Shift=    0.000
 RMSDP=2.38D-07 MaxDP=4.56D-06 DE= 4.21D-11 OVMax= 7.78D-06

 Cycle   9  Pass 1  IDiag  1:
 E= -76.4234255850335     Delta-E=       -0.000000000797 Rises=F Damp=F
 DIIS: error= 3.17D-07 at cycle   4 NSaved=   4.
 NSaved= 4 IEnMin= 4 EnMin= -76.4234255850335     IErMin= 4 ErrMin= 3.17D-07
 ErrMax= 3.17D-07  0.00D+00 EMaxC= 1.00D-01 BMatC= 3.30D-12 BMatP= 1.21D-09
 IDIUse=1 WtCom= 1.00D+00 WtEn= 0.00D+00
 Coeff-Com: -0.208D-02 0.148D-01 0.515D-01 0.936D+00
 Coeff:     -0.208D-02 0.148D-01 0.515D-01 0.936D+00
 Gap=     0.450 Goal=   None    Shift=    0.000
 RMSDP=2.46D-08 MaxDP=3.16D-07 DE=-7.97D-10 OVMax= 8.00D-07

 Cycle  10  Pass 1  IDiag  1:
 E= -76.4234255850364     Delta-E=       -0.000000000003 Rises=F Damp=F
 DIIS: error= 5.76D-08 at cycle   5 NSaved=   5.
 NSaved= 5 IEnMin= 5 EnMin= -76.4234255850364     IErMin= 5 ErrMin= 5.76D-08
 ErrMax= 5.76D-08  0.00D+00 EMaxC= 1.00D-01 BMatC= 1.22D-13 BMatP= 3.30D-12
 IDIUse=1 WtCom= 1.00D+00 WtEn= 0.00D+00
 Coeff-Com:  0.748D-03-0.186D-01-0.127D-01 0.113D+00 0.917D+00
 Coeff:      0.748D-03-0.186D-01-0.127D-01 0.113D+00 0.917D+00
 Gap=     0.450 Goal=   None    Shift=    0.000
 RMSDP=8.37D-09 MaxDP=1.64D-07 DE=-2.90D-12 OVMax= 2.76D-07

 SCF Done:  E(RM062X) =  -76.4234255850     A.U. after   10 cycles
            NFock= 10  Conv=0.84D-08     -V/T= 2.0054
 KE= 7.601202606444D+01 PE=-1.986528532574D+02 EE= 3.729899305041D+01
 Leave Link  502 at Thu Mar 31 22:20:55 2022, MaxMem=   671088640 cpu:             171.4 elap:              10.8
 (Enter /shared/centos7/gaussian/g16/l801.exe)
 DoSCS=F DFT=T ScalE2(SS,OS)=  1.000000  1.000000
 Range of M.O.s used for correlation:     1    58
 NBasis=    58 NAE=     5 NBE=     5 NFC=     0 NFV=     0
 NROrb=     58 NOA=     5 NOB=     5 NVA=    53 NVB=    53
 Leave Link  801 at Thu Mar 31 22:20:55 2022, MaxMem=   671088640 cpu:               2.0 elap:               0.2
 (Enter /shared/centos7/gaussian/g16/l1101.exe)
 Using compressed storage, NAtomX=     3.
 Will process      4 centers per pass.
 Leave Link 1101 at Thu Mar 31 22:20:56 2022, MaxMem=   671088640 cpu:              21.5 elap:               1.4
 (Enter /shared/centos7/gaussian/g16/l1102.exe)
 Symmetrizing basis deriv contribution to polar:
 IMax=3 JMax=2 DiffMx= 0.00D+00
 Leave Link 1102 at Thu Mar 31 22:20:57 2022, MaxMem=   671088640 cpu:               5.1 elap:               0.4
 (Enter /shared/centos7/gaussian/g16/l1110.exe)
 Forming Gx(P) for the SCF density, NAtomX=     3.
 Integral derivatives from FoFJK, PRISM(SPDF).
 Do as many integral derivatives as possible in FoFJK.
 G2DrvN: MDV=     671088300.
 G2DrvN: will do     4 centers at a time, making    1 passes.
 Calling FoFCou, ICntrl=  3107 FMM=F I1Cent=   0 AccDes= 0.00D+00.
 FoFJK:  IHMeth= 1 ICntrl=    3107 DoSepK=F KAlg= 0 I1Cent=           0 FoldK=F
 IRaf=         0 NMat=       1 IRICut=       1 DoRegI=T DoRafI=F ISym2E= 1 IDoP0=0 IntGTp=1.
 FoFCou: FMM=F IPFlag=           0 FMFlag=      100000 FMFlg1=           0
         NFxFlg=           0 DoJE=F BraDBF=F KetDBF=F FulRan=T
         wScrn=  0.000000 ICntrl=      3107 IOpCl=  0 I1Cent=           0 NGrid=           0
         NMat0=    1 NMatS0=      1 NMatT0=    0 NMatD0=    1 NMtDS0=    0 NMtDT0=    0
 Petite list used in FoFCou.
 End of G2Drv F.D. properties file   721 does not exist.
 End of G2Drv F.D. properties file   722 does not exist.
 End of G2Drv F.D. properties file   788 does not exist.
 Leave Link 1110 at Thu Mar 31 22:20:59 2022, MaxMem=   671088640 cpu:              35.3 elap:               2.2
 (Enter /shared/centos7/gaussian/g16/l1002.exe)
 Minotr:  Closed shell wavefunction.
          IDoAtm=111
          Direct CPHF calculation.
          Differentiating once with respect to nuclear coordinates.
          Using symmetry in CPHF.
          Requested convergence is 1.0D-08 RMS, and 1.0D-07 maximum.
          Secondary convergence is 1.0D-12 RMS, and 1.0D-12 maximum.
          NewPWx=T KeepS1=F KeepF1=F KeepIn=T MapXYZ=F SortEE=F KeepMc=T.
          895 words used for storage of precomputed grid.
 Keep R1 ints in memory in symmetry-blocked form, NReq=22715718.
 FoFCou: FMM=F IPFlag=           0 FMFlag=           0 FMFlg1=           0
         NFxFlg=           0 DoJE=F BraDBF=F KetDBF=F FulRan=T
         wScrn=  0.000000 ICntrl=       600 IOpCl=  0 I1Cent=           0 NGrid=           0
         NMat0=    1 NMatS0=   1711 NMatT0=    0 NMatD0=    1 NMtDS0=    0 NMtDT0=    0
 Petite list used in FoFCou.
          MDV=     671088640 using IRadAn=       1.
          Solving linear equations simultaneously, MaxMat=       0.
          There are    12 degrees of freedom in the 1st order CPHF.  IDoFFX=6 NUNeed=     0.
      6 vectors produced by pass  0 Test12= 2.21D-15 8.33D-09 XBig12= 3.81D-02 1.03D-01.
 AX will form     6 AO Fock derivatives at one time.
      6 vectors produced by pass  1 Test12= 2.21D-15 8.33D-09 XBig12= 7.54D-03 4.54D-02.
      6 vectors produced by pass  2 Test12= 2.21D-15 8.33D-09 XBig12= 6.60D-04 1.38D-02.
      6 vectors produced by pass  3 Test12= 2.21D-15 8.33D-09 XBig12= 2.45D-05 1.97D-03.
      6 vectors produced by pass  4 Test12= 2.21D-15 8.33D-09 XBig12= 1.30D-07 1.35D-04.
      6 vectors produced by pass  5 Test12= 2.21D-15 8.33D-09 XBig12= 1.22D-09 1.65D-05.
      3 vectors produced by pass  6 Test12= 2.21D-15 8.33D-09 XBig12= 4.23D-12 5.13D-07.
      1 vectors produced by pass  7 Test12= 2.21D-15 8.33D-09 XBig12= 7.61D-15 2.75D-08.
 InvSVY:  IOpt=1 It=  1 EMax= 2.22D-16
 Solved reduced A of dimension    40 with     6 vectors.
 End of Minotr F.D. properties file   721 does not exist.
 End of Minotr F.D. properties file   722 does not exist.
 End of Minotr F.D. properties file   788 does not exist.
 Leave Link 1002 at Thu Mar 31 22:21:07 2022, MaxMem=   671088640 cpu:             126.8 elap:               8.0
 (Enter /shared/centos7/gaussian/g16/l601.exe)
 Copying SCF densities to generalized density rwf, IOpCl= 0 IROHF=0.

 **********************************************************************

            Population analysis using the SCF density.

 **********************************************************************

 Orbital symmetries:
       Occupied  (A') (A') (A') (A') (A")
       Virtual   (A') (A') (A') (A') (A') (A") (A') (A') (A") (A")
                 (A') (A') (A') (A') (A") (A") (A') (A') (A') (A')
                 (A') (A") (A') (A") (A') (A") (A') (A') (A") (A")
                 (A') (A') (A") (A') (A') (A") (A') (A') (A') (A')
                 (A") (A') (A") (A") (A') (A") (A') (A') (A") (A')
                 (A') (A') (A')
 The electronic state is 1-A'.
 Alpha  occ. eigenvalues --  -19.61515  -1.11313  -0.59559  -0.45647  -0.39004
 Alpha virt. eigenvalues --    0.05958   0.12369   0.41243   0.43753   0.55344
 Alpha virt. eigenvalues --    0.64363   0.66361   0.68865   0.71249   0.83414
 Alpha virt. eigenvalues --    0.98743   1.02856   1.32086   1.33516   1.78698
 Alpha virt. eigenvalues --    1.83856   1.89313   1.91697   2.02323   2.31108
 Alpha virt. eigenvalues --    2.61867   3.09731   3.20681   3.23426   3.30094
 Alpha virt. eigenvalues --    3.42897   3.52162   3.56838   3.61758   3.70501
 Alpha virt. eigenvalues --    3.74391   3.80366   3.98635   4.04611   4.13791
 Alpha virt. eigenvalues --    4.30506   4.45285   4.64744   4.83918   5.11901
 Alpha virt. eigenvalues --    5.54688   5.95617   6.34081   6.37691   6.42418
 Alpha virt. eigenvalues --    6.50923   6.57350   6.61603   6.70555   6.94646
 Alpha virt. eigenvalues --    7.19088   7.54168  11.79639
          Condensed to atoms (all electrons):
               1          2          3
     1  O    7.856667   0.337940   0.336424
     2  H    0.337940   0.437987  -0.040063
     3  H    0.336424  -0.040063   0.436743
 Mulliken charges:
               1
     1  O   -0.531032
     2  H    0.264136
     3  H    0.266896
 Sum of Mulliken charges =   0.00000
 Mulliken charges with hydrogens summed into heavy atoms:
               1
     1  O    0.000000
 APT charges:
               1
     1  O   -0.898391
     2  H    0.447580
     3  H    0.450811
 Sum of APT charges =   0.00000
 APT charges with hydrogens summed into heavy atoms:
               1
     1  O    0.000000
 Electronic spatial extent (au):  <R**2>=             19.6723
 Charge=              0.0000 electrons
 Dipole moment (field-independent basis, Debye):
    X=              0.0059    Y=             -1.9229    Z=              0.0000  Tot=              1.9229
 Quadrupole moment (field-independent basis, Debye-Ang):
   XX=             -4.0666   YY=             -6.2687   ZZ=             -7.4264
   XY=              0.0332   XZ=             -0.0000   YZ=             -0.0000
 Traceless Quadrupole moment (field-independent basis, Debye-Ang):
   XX=              1.8540   YY=             -0.3481   ZZ=             -1.5059
   XY=              0.0332   XZ=             -0.0000   YZ=             -0.0000
 Octapole moment (field-independent basis, Debye-Ang**2):
  XXX=              0.0182  YYY=             -1.0362  ZZZ=             -0.0000  XYY=             -0.0226
  XXY=             -1.4186  XXZ=              0.0000  XZZ=              0.0071  YZZ=             -0.2374
  YYZ=             -0.0000  XYZ=              0.0000
 Hexadecapole moment (field-independent basis, Debye-Ang**3):
 XXXX=             -6.0790 YYYY=             -6.7820 ZZZZ=             -5.8504 XXXY=             -0.0018
 XXXZ=              0.0000 YYYX=             -0.0023 YYYZ=              0.0000 ZZZX=              0.0000
 ZZZY=              0.0000 XXYY=             -1.8188 XXZZ=             -2.3717 YYZZ=             -2.1557
 XXYZ=             -0.0000 YYXZ=              0.0000 ZZXY=             -0.0095
 N-N= 8.918408557565D+00 E-N=-1.986528530312D+02  KE= 7.601202606444D+01
 Symmetry A'   KE= 7.146541425193D+01
 Symmetry A"   KE= 4.546611812505D+00
  Exact polarizability:   0.000   0.000   0.000   0.000   0.000   0.000
 Approx polarizability:   9.718   0.090   7.740  -0.000  -0.000   5.353
 No NMR shielding tensors so no spin-rotation constants.
 Leave Link  601 at Thu Mar 31 22:21:09 2022, MaxMem=   671088640 cpu:              28.5 elap:               1.8
 (Enter /shared/centos7/gaussian/g16/l701.exe)
 SCFChk:  SCF convergence  8.37D-09 required  1.00D-08
 ... and contract with generalized density number  0.
 Compute integral second derivatives.
 Entering OneElI...
 Calculate overlap and kinetic energy integrals
    NBasis =  65  MinDer = 2  MaxDer = 2
 Requested accuracy = 0.1000D-12
 PrmmSu-InSpLW:  IPartL=    0 NPrtUS=   24 NPrtUL=    1 DoSpLW=F IThBeg=    0 IThEnd=   23 NThAct=   24.
 PrsmSu:  NPrtUS=  24 ThrOK=T IAlg=1 NPAlg=1 LenDen=           0 ISkipM=0 DoSpLW=F IThBeg=    0 IThEnd=   23.
 Prism:   IPart=     0 DynPar=F LinDyn=F Incr=           1.
 PRISM was handed    27953444 working-precision words and   253 shell-pairs
 PRISM was handed    27953444 working-precision words and   253 shell-pairs
 PRISM was handed    27953444 working-precision words and   253 shell-pairs
 PRISM was handed    27953444 working-precision words and   253 shell-pairs
 PRISM was handed    27953444 working-precision words and   253 shell-pairs
 PRISM was handed    27953444 working-precision words and   253 shell-pairs
 PRISM was handed    27953444 working-precision words and   253 shell-pairs
 PRISM was handed    27953444 working-precision words and   253 shell-pairs
 PRISM was handed    27953444 working-precision words and   253 shell-pairs
 PRISM was handed    27953444 working-precision words and   253 shell-pairs
 PRISM was handed    27953444 working-precision words and   253 shell-pairs
 PRISM was handed    27953444 working-precision words and   253 shell-pairs
 PRISM was handed    27953444 working-precision words and   253 shell-pairs
 IPart=  0 NShTot=          37 NBatch=          36 AvBLen=         1.0
 IPart= 17 NShTot=           6 NBatch=           6 AvBLen=         1.0
 PRISM was handed    27953444 working-precision words and   253 shell-pairs
 IPart= 16 NShTot=           6 NBatch=           6 AvBLen=         1.0
 IPart= 11 NShTot=           8 NBatch=           7 AvBLen=         1.1
 PRISM was handed    27953444 working-precision words and   253 shell-pairs
 IPart= 13 NShTot=           6 NBatch=           6 AvBLen=         1.0
 PRISM was handed    27953444 working-precision words and   253 shell-pairs
 PRISM was handed    27953444 working-precision words and   253 shell-pairs
 IPart= 18 NShTot=           5 NBatch=           5 AvBLen=         1.0
 IPart=  8 NShTot=           9 NBatch=           8 AvBLen=         1.1
 IPart=  6 NShTot=          10 NBatch=           9 AvBLen=         1.1
 IPart= 12 NShTot=           6 NBatch=           6 AvBLen=         1.0
 PRISM was handed    27953444 working-precision words and   253 shell-pairs
 IPart= 15 NShTot=           6 NBatch=           6 AvBLen=         1.0
 PRISM was handed    27953444 working-precision words and   253 shell-pairs
 PRISM was handed    27953444 working-precision words and   253 shell-pairs
 PRISM was handed    27953444 working-precision words and   253 shell-pairs
 PRISM was handed    27953444 working-precision words and   253 shell-pairs
 PRISM was handed    27953444 working-precision words and   253 shell-pairs
 PRISM was handed    27953444 working-precision words and   253 shell-pairs
 IPart=  5 NShTot=          17 NBatch=          16 AvBLen=         1.1
 IPart= 14 NShTot=           6 NBatch=           6 AvBLen=         1.0
 IPart=  4 NShTot=          17 NBatch=          16 AvBLen=         1.1
 IPart=  2 NShTot=          21 NBatch=          20 AvBLen=         1.1
 IPart=  3 NShTot=          21 NBatch=          20 AvBLen=         1.1
 IPart=  9 NShTot=           9 NBatch=           8 AvBLen=         1.1
 IPart=  7 NShTot=          10 NBatch=           9 AvBLen=         1.1
 IPart= 23 NShTot=           3 NBatch=           3 AvBLen=         1.0
 IPart=  1 NShTot=          26 NBatch=          25 AvBLen=         1.0
 IPart= 10 NShTot=           8 NBatch=           7 AvBLen=         1.1
 IPart= 22 NShTot=           3 NBatch=           3 AvBLen=         1.0
 IPart= 19 NShTot=           5 NBatch=           5 AvBLen=         1.0
 IPart= 21 NShTot=           3 NBatch=           3 AvBLen=         1.0
 IPart= 20 NShTot=           5 NBatch=           5 AvBLen=         1.0
 PrSmSu:  NxtVal=             25.
 Entering OneElI...
 Calculate potential energy integrals
    NBasis =  65  MinDer = 2  MaxDer = 2
 Requested accuracy = 0.1000D-12
 PrmmSu-InSpLW:  IPartL=    0 NPrtUS=   24 NPrtUL=    1 DoSpLW=F IThBeg=    0 IThEnd=   23 NThAct=   24.
 PrsmSu:  NPrtUS=  24 ThrOK=T IAlg=1 NPAlg=1 LenDen=           0 ISkipM=0 DoSpLW=F IThBeg=    0 IThEnd=   23.
 Prism:   IPart=     0 DynPar=F LinDyn=F Incr=           1.
 PRISM was handed    27953694 working-precision words and   253 shell-pairs
 PRISM was handed    27953694 working-precision words and   253 shell-pairs
 PRISM was handed    27953694 working-precision words and   253 shell-pairs
 PRISM was handed    27953694 working-precision words and   253 shell-pairs
 PRISM was handed    27953694 working-precision words and   253 shell-pairs
 PRISM was handed    27953694 working-precision words and   253 shell-pairs
 PRISM was handed    27953694 working-precision words and   253 shell-pairs
 PRISM was handed    27953694 working-precision words and   253 shell-pairs
 PRISM was handed    27953694 working-precision words and   253 shell-pairs
 PRISM was handed    27953694 working-precision words and   253 shell-pairs
 PRISM was handed    27953694 working-precision words and   253 shell-pairs
 PRISM was handed    27953694 working-precision words and   253 shell-pairs
 PRISM was handed    27953694 working-precision words and   253 shell-pairs
 PRISM was handed    27953694 working-precision words and   253 shell-pairs
 PRISM was handed    27953694 working-precision words and   253 shell-pairs
 PRISM was handed    27953694 working-precision words and   253 shell-pairs
 PRISM was handed    27953694 working-precision words and   253 shell-pairs
 PRISM was handed    27953694 working-precision words and   253 shell-pairs
 PRISM was handed    27953694 working-precision words and   253 shell-pairs
 PRISM was handed    27953694 working-precision words and   253 shell-pairs
 PRISM was handed    27953694 working-precision words and   253 shell-pairs
 PRISM was handed    27953694 working-precision words and   253 shell-pairs
 PRISM was handed    27953694 working-precision words and   253 shell-pairs
 PRISM was handed    27953694 working-precision words and   253 shell-pairs
 IPart= 18 NShTot=          15 NBatch=           5 AvBLen=         3.0
 IPart= 16 NShTot=          18 NBatch=           6 AvBLen=         3.0
 IPart=  1 NShTot=          78 NBatch=          26 AvBLen=         3.0
 IPart=  4 NShTot=          51 NBatch=          17 AvBLen=         3.0
 IPart=  8 NShTot=          27 NBatch=           9 AvBLen=         3.0
 IPart=  6 NShTot=          33 NBatch=          11 AvBLen=         3.0
 IPart= 14 NShTot=          18 NBatch=           6 AvBLen=         3.0
 IPart= 11 NShTot=          24 NBatch=           8 AvBLen=         3.0
 IPart=  9 NShTot=          27 NBatch=           9 AvBLen=         3.0
 IPart= 15 NShTot=          18 NBatch=           6 AvBLen=         3.0
 IPart= 12 NShTot=          18 NBatch=           6 AvBLen=         3.0
 IPart=  2 NShTot=          63 NBatch=          21 AvBLen=         3.0
 IPart= 20 NShTot=          15 NBatch=           5 AvBLen=         3.0
 IPart=  0 NShTot=         108 NBatch=          36 AvBLen=         3.0
 IPart= 10 NShTot=          24 NBatch=           8 AvBLen=         3.0
 IPart= 19 NShTot=          15 NBatch=           5 AvBLen=         3.0
 IPart= 22 NShTot=           9 NBatch=           3 AvBLen=         3.0
 IPart= 13 NShTot=          18 NBatch=           6 AvBLen=         3.0
 IPart= 23 NShTot=           9 NBatch=           3 AvBLen=         3.0
 IPart= 17 NShTot=          18 NBatch=           6 AvBLen=         3.0
 IPart= 21 NShTot=           9 NBatch=           3 AvBLen=         3.0
 IPart=  7 NShTot=          30 NBatch=          10 AvBLen=         3.0
 IPart=  3 NShTot=          63 NBatch=          21 AvBLen=         3.0
 IPart=  5 NShTot=          51 NBatch=          17 AvBLen=         3.0
 PrSmSu:  NxtVal=             25.
 Polarizability after L701:
                1             2             3 
      1  0.000000D+00
      2  0.000000D+00  0.000000D+00
      3  0.000000D+00  0.000000D+00  0.000000D+00
 Dipole Derivatives after L701:
                 1             2             3             4             5 
      1  -0.132131D+01 -0.443705D-02  0.000000D+00  0.662593D+00 -0.241581D+00
      2  -0.578025D-02 -0.830618D+00  0.000000D+00 -0.193169D+00  0.409947D+00
      3   0.000000D+00  0.000000D+00 -0.543246D+00  0.000000D+00  0.000000D+00
                 6             7             8             9 
      1   0.000000D+00  0.658717D+00  0.246018D+00  0.000000D+00
      2   0.000000D+00  0.198949D+00  0.420670D+00  0.000000D+00
      3   0.270201D+00  0.000000D+00  0.000000D+00  0.273045D+00
 Hessian after L701:
                1             2             3             4             5 
      1  0.178841D+01
      2 -0.297502D-01  0.422039D+01
      3  0.000000D+00  0.000000D+00  0.641639D+01
      4 -0.916505D+00 -0.148707D+01  0.000000D+00  0.105062D+01
      5 -0.141911D+01 -0.217970D+01  0.000000D+00  0.145581D+01  0.210737D+01
      6  0.000000D+00  0.000000D+00 -0.325194D+01  0.000000D+00  0.000000D+00
      7 -0.871900D+00  0.151682D+01  0.000000D+00 -0.134119D+00 -0.366973D-01
      8  0.144886D+01 -0.204069D+01  0.000000D+00  0.312630D-01  0.723273D-01
      9  0.000000D+00  0.000000D+00 -0.316446D+01  0.000000D+00  0.000000D+00
                6             7             8             9 
      6  0.320271D+01
      7  0.000000D+00  0.100602D+01
      8  0.000000D+00 -0.148012D+01  0.196836D+01
      9  0.492297D-01  0.000000D+00  0.000000D+00  0.311523D+01
 Leave Link  701 at Thu Mar 31 22:21:10 2022, MaxMem=   671088640 cpu:              20.2 elap:               1.3
 (Enter /shared/centos7/gaussian/g16/l702.exe)
 L702 exits ... SP integral derivatives will be done elsewhere.
 Leave Link  702 at Thu Mar 31 22:21:10 2022, MaxMem=   671088640 cpu:               2.5 elap:               0.2
 (Enter /shared/centos7/gaussian/g16/l703.exe)
 Integral derivatives from FoFJK, PRISM(SPDF).
 Compute integral second derivatives, UseDBF=F ICtDFT=           0.
 ICntrl=    100147.
 Calling FoFJK, ICntrl=    100147 FMM=F ISym2X=1 I1Cent= 0 IOpClX= 0 NMat=1 NMatS=1 NMatT=0.
 FoFJK:  IHMeth= 1 ICntrl=  100147 DoSepK=F KAlg= 0 I1Cent=           0 FoldK=F
 IRaf=         0 NMat=       1 IRICut=       1 DoRegI=T DoRafI=F ISym2E= 1 IDoP0=0 IntGTp=1.
 FoFCou: FMM=F IPFlag=           0 FMFlag=      100000 FMFlg1=         800
         NFxFlg=           0 DoJE=F BraDBF=F KetDBF=F FulRan=T
         wScrn=  0.000000 ICntrl=    100147 IOpCl=  0 I1Cent=           0 NGrid=           0
         NMat0=    1 NMatS0=      1 NMatT0=    0 NMatD0=    1 NMtDS0=    0 NMtDT0=    0
 Petite list used in FoFCou.
 FoFCou:  KetSym=F NOpSet=  2 NOpAb=2 NOp=  2.
 FoFCou:  CnvScl= 1.00D+00 Thresh= 1.00D-08 IAcrcy=      12.
 PrismS was handed   671058558 working-precision words and   253 shell-pairs
 FoFCou: LinMIO=F DoNuc=F BraDBF=F KetDBF=F HaveP=T PDBF=F HaveZ=T HaveW=F
         NIJTC =      10 NIJTAt=       0 NIJTCD=       0 NIJTT =      10
         IJTBeg=       1 IJTEnd=      10 KLTBeg=       1 KLTEnd=      10
         IPTBeg=       1 IPTEnd=      10 IPTBCv=       1 IPTECv=      10
         IZTBeg=       1 IZTEnd=      10 IZTBCv=       1 IZTECv=      10
         IWTBeg=      11 IWTEnd=      10 IWTBCv=      11 IWTECv=      10
         INTBeg=       1 INTEnd=       0 IFTBCv=       1 IFTECv=      10
 NCel replicated for PrismC:     1
 CoulSu-InSpLW:  IPartL=    0 NPrtUS=   24 NPrtUL=    1 DoSpLW=F IThBeg=    0 IThEnd=   23 NThAct=   24.
 CoulSu:  IncDef=  1024 NBBP=          32131 NTPThr=   100 NPartT=   24 Incr=          13 LDynOK=F GPUOK=T.
 CoulSu:  NPrtUS=  24 ThrOK=T IAlg=1 NPAlg=1 LenDen=           0 LWGrdD=           0 DoCopy=F ISkipM=0
          DoSpLW=F IThBeg=    0 IThEnd=   23.
 Enter PrismC:  IPart=  0 JobTyp=22 DoJE=F Cont=F.
 PrismC:  IPart=     0 DynPar=F LinDyn=F Incr=          13 UseFst=F UseS4=T ISplat=2.
 PrismC was handed    27953937 working-precision words and   253 shell-pairs
 Enter PrismC:  IPart= 16 JobTyp=22 DoJE=F Cont=F.
 PrismC:  IPart=    16 DynPar=F LinDyn=F Incr=          13 UseFst=F UseS4=T ISplat=2.
 PrismC was handed    27953937 working-precision words and   253 shell-pairs
 Enter PrismC:  IPart= 14 JobTyp=22 DoJE=F Cont=F.
 PrismC:  IPart=    14 DynPar=F LinDyn=F Incr=          13 UseFst=F UseS4=T ISplat=2.
 PrismC was handed    27953937 working-precision words and   253 shell-pairs
 Enter PrismC:  IPart=  4 JobTyp=22 DoJE=F Cont=F.
 PrismC:  IPart=     4 DynPar=F LinDyn=F Incr=          13 UseFst=F UseS4=T ISplat=2.
 PrismC was handed    27953937 working-precision words and   253 shell-pairs
 Enter PrismC:  IPart=  7 JobTyp=22 DoJE=F Cont=F.
 PrismC:  IPart=     7 DynPar=F LinDyn=F Incr=          13 UseFst=F UseS4=T ISplat=2.
 PrismC was handed    27953937 working-precision words and   253 shell-pairs
 Enter PrismC:  IPart=  6 JobTyp=22 DoJE=F Cont=F.
 PrismC:  IPart=     6 DynPar=F LinDyn=F Incr=          13 UseFst=F UseS4=T ISplat=2.
 PrismC was handed    27953937 working-precision words and   253 shell-pairs
 Enter PrismC:  IPart= 19 JobTyp=22 DoJE=F Cont=F.
 Enter PrismC:  IPart= 11 JobTyp=22 DoJE=F Cont=F.
 Enter PrismC:  IPart=  9 JobTyp=22 DoJE=F Cont=F.
 PrismC:  IPart=    19 DynPar=F LinDyn=F Incr=          13 UseFst=F UseS4=T ISplat=2.
 PrismC:  IPart=     9 DynPar=F LinDyn=F Incr=          13 UseFst=F UseS4=T ISplat=2.
 PrismC was handed    27953937 working-precision words and   253 shell-pairs
 Enter PrismC:  IPart=  1 JobTyp=22 DoJE=F Cont=F.
 PrismC was handed    27953937 working-precision words and   253 shell-pairs
 PrismC:  IPart=    11 DynPar=F LinDyn=F Incr=          13 UseFst=F UseS4=T ISplat=2.
 PrismC:  IPart=     1 DynPar=F LinDyn=F Incr=          13 UseFst=F UseS4=T ISplat=2.
 PrismC was handed    27953937 working-precision words and   253 shell-pairs
 PrismC was handed    27953937 working-precision words and   253 shell-pairs
 Enter PrismC:  IPart= 15 JobTyp=22 DoJE=F Cont=F.
 PrismC:  IPart=    15 DynPar=F LinDyn=F Incr=          13 UseFst=F UseS4=T ISplat=2.
 PrismC was handed    27953937 working-precision words and   253 shell-pairs
 Enter PrismC:  IPart= 13 JobTyp=22 DoJE=F Cont=F.
 PrismC:  IPart=    13 DynPar=F LinDyn=F Incr=          13 UseFst=F UseS4=T ISplat=2.
 PrismC was handed    27953937 working-precision words and   253 shell-pairs
 Enter PrismC:  IPart=  5 JobTyp=22 DoJE=F Cont=F.
 PrismC:  IPart=     5 DynPar=F LinDyn=F Incr=          13 UseFst=F UseS4=T ISplat=2.
 PrismC was handed    27953937 working-precision words and   253 shell-pairs
 Enter PrismC:  IPart= 23 JobTyp=22 DoJE=F Cont=F.
 PrismC:  IPart=    23 DynPar=F LinDyn=F Incr=          13 UseFst=F UseS4=T ISplat=2.
 PrismC was handed    27953937 working-precision words and   253 shell-pairs
 Enter PrismC:  IPart=  2 JobTyp=22 DoJE=F Cont=F.
 PrismC:  IPart=     2 DynPar=F LinDyn=F Incr=          13 UseFst=F UseS4=T ISplat=2.
 PrismC was handed    27953937 working-precision words and   253 shell-pairs
 Enter PrismC:  IPart=  8 JobTyp=22 DoJE=F Cont=F.
 PrismC:  IPart=     8 DynPar=F LinDyn=F Incr=          13 UseFst=F UseS4=T ISplat=2.
 PrismC was handed    27953937 working-precision words and   253 shell-pairs
 Enter PrismC:  IPart=  3 JobTyp=22 DoJE=F Cont=F.
 PrismC:  IPart=     3 DynPar=F LinDyn=F Incr=          13 UseFst=F UseS4=T ISplat=2.
 PrismC was handed    27953937 working-precision words and   253 shell-pairs
 Enter PrismC:  IPart= 20 JobTyp=22 DoJE=F Cont=F.
 PrismC:  IPart=    20 DynPar=F LinDyn=F Incr=          13 UseFst=F UseS4=T ISplat=2.
 PrismC was handed    27953937 working-precision words and   253 shell-pairs
 Enter PrismC:  IPart= 10 JobTyp=22 DoJE=F Cont=F.
 Enter PrismC:  IPart= 12 JobTyp=22 DoJE=F Cont=F.
 Enter PrismC:  IPart= 17 JobTyp=22 DoJE=F Cont=F.
 PrismC:  IPart=    12 DynPar=F LinDyn=F Incr=          13 UseFst=F UseS4=T ISplat=2.
 PrismC:  IPart=    17 DynPar=F LinDyn=F Incr=          13 UseFst=F UseS4=T ISplat=2.
 PrismC was handed    27953937 working-precision words and   253 shell-pairs
 PrismC:  IPart=    10 DynPar=F LinDyn=F Incr=          13 UseFst=F UseS4=T ISplat=2.
 PrismC was handed    27953937 working-precision words and   253 shell-pairs
 PrismC was handed    27953937 working-precision words and   253 shell-pairs
 Enter PrismC:  IPart= 18 JobTyp=22 DoJE=F Cont=F.
 Enter PrismC:  IPart= 21 JobTyp=22 DoJE=F Cont=F.
 PrismC:  IPart=    18 DynPar=F LinDyn=F Incr=          13 UseFst=F UseS4=T ISplat=2.
 PrismC was handed    27953937 working-precision words and   253 shell-pairs
 PrismC:  IPart=    21 DynPar=F LinDyn=F Incr=          13 UseFst=F UseS4=T ISplat=2.
 PrismC was handed    27953937 working-precision words and   253 shell-pairs
 Enter PrismC:  IPart= 22 JobTyp=22 DoJE=F Cont=F.
 PrismC:  IPart=    22 DynPar=F LinDyn=F Incr=          13 UseFst=F UseS4=T ISplat=2.
 PrismC was handed    27953937 working-precision words and   253 shell-pairs
 IPart= 18 NShTot=        1195 NShNF=        1195 NShFF=           0 MinMC=       7
           NShCPU=        1195 NBCPU=         299 AvBCPU=         4.0
           NShGPU=           0 NBGPU=           0 AvBGPU=         0.0
 IPart= 14 NShTot=        1253 NShNF=        1253 NShFF=           0 MinMC=       7
           NShCPU=        1253 NBCPU=         324 AvBCPU=         3.9
           NShGPU=           0 NBGPU=           0 AvBGPU=         0.0
 IPart=  1 NShTot=        1614 NShNF=        1614 NShFF=           0 MinMC=       7
           NShCPU=        1614 NBCPU=         575 AvBCPU=         2.8
           NShGPU=           0 NBGPU=           0 AvBGPU=         0.0
 IPart= 21 NShTot=        1154 NShNF=        1154 NShFF=           0 MinMC=       7
           NShCPU=        1154 NBCPU=         274 AvBCPU=         4.2
           NShGPU=           0 NBGPU=           0 AvBGPU=         0.0
 IPart=  8 NShTot=        1371 NShNF=        1371 NShFF=           0 MinMC=       7
           NShCPU=        1371 NBCPU=         379 AvBCPU=         3.6
           NShGPU=           0 NBGPU=           0 AvBGPU=         0.0
 IPart= 20 NShTot=        1175 NShNF=        1175 NShFF=           0 MinMC=       7
           NShCPU=        1175 NBCPU=         294 AvBCPU=         4.0
           NShGPU=           0 NBGPU=           0 AvBGPU=         0.0
 IPart= 22 NShTot=        1141 NShNF=        1141 NShFF=           0 MinMC=       7
           NShCPU=        1141 NBCPU=         267 AvBCPU=         4.3
           NShGPU=           0 NBGPU=           0 AvBGPU=         0.0
 IPart=  2 NShTot=        1567 NShNF=        1567 NShFF=           0 MinMC=       7
           NShCPU=        1567 NBCPU=         530 AvBCPU=         3.0
           NShGPU=           0 NBGPU=           0 AvBGPU=         0.0
 IPart= 11 NShTot=        1335 NShNF=        1335 NShFF=           0 MinMC=       7
           NShCPU=        1335 NBCPU=         363 AvBCPU=         3.7
           NShGPU=           0 NBGPU=           0 AvBGPU=         0.0
 IPart= 13 NShTot=        1263 NShNF=        1263 NShFF=           0 MinMC=       7
           NShCPU=        1263 NBCPU=         329 AvBCPU=         3.8
           NShGPU=           0 NBGPU=           0 AvBGPU=         0.0
 IPart= 16 NShTot=        1223 NShNF=        1223 NShFF=           0 MinMC=       7
           NShCPU=        1223 NBCPU=         303 AvBCPU=         4.0
           NShGPU=           0 NBGPU=           0 AvBGPU=         0.0
 IPart= 10 NShTot=        1347 NShNF=        1347 NShFF=           0 MinMC=       7
           NShCPU=        1347 NBCPU=         368 AvBCPU=         3.7
           NShGPU=           0 NBGPU=           0 AvBGPU=         0.0
 IPart=  0 NShTot=        1699 NShNF=        1699 NShFF=           0 MinMC=       7
           NShCPU=        1699 NBCPU=         640 AvBCPU=         2.7
           NShGPU=           0 NBGPU=           0 AvBGPU=         0.0
 IPart=  3 NShTot=        1561 NShNF=        1561 NShFF=           0 MinMC=       7
           NShCPU=        1561 NBCPU=         530 AvBCPU=         2.9
           NShGPU=           0 NBGPU=           0 AvBGPU=         0.0
 IPart= 17 NShTot=        1212 NShNF=        1212 NShFF=           0 MinMC=       7
           NShCPU=        1212 NBCPU=         301 AvBCPU=         4.0
           NShGPU=           0 NBGPU=           0 AvBGPU=         0.0
 IPart= 12 NShTot=        1272 NShNF=        1272 NShFF=           0 MinMC=       7
           NShCPU=        1272 NBCPU=         329 AvBCPU=         3.9
           NShGPU=           0 NBGPU=           0 AvBGPU=         0.0
 IPart= 19 NShTot=        1185 NShNF=        1185 NShFF=           0 MinMC=       7
           NShCPU=        1185 NBCPU=         299 AvBCPU=         4.0
           NShGPU=           0 NBGPU=           0 AvBGPU=         0.0
 IPart=  5 NShTot=        1487 NShNF=        1487 NShFF=           0 MinMC=       7
           NShCPU=        1487 NBCPU=         473 AvBCPU=         3.1
           NShGPU=           0 NBGPU=           0 AvBGPU=         0.0
 IPart= 15 NShTot=        1245 NShNF=        1245 NShFF=           0 MinMC=       7
           NShCPU=        1245 NBCPU=         318 AvBCPU=         3.9
           NShGPU=           0 NBGPU=           0 AvBGPU=         0.0
 IPart=  9 NShTot=        1362 NShNF=        1362 NShFF=           0 MinMC=       7
           NShCPU=        1362 NBCPU=         378 AvBCPU=         3.6
           NShGPU=           0 NBGPU=           0 AvBGPU=         0.0
 IPart= 23 NShTot=        1132 NShNF=        1132 NShFF=           0 MinMC=       7
           NShCPU=        1132 NBCPU=         266 AvBCPU=         4.3
           NShGPU=           0 NBGPU=           0 AvBGPU=         0.0
 IPart=  6 NShTot=        1427 NShNF=        1427 NShFF=           0 MinMC=       7
           NShCPU=        1427 NBCPU=         415 AvBCPU=         3.4
           NShGPU=           0 NBGPU=           0 AvBGPU=         0.0
 IPart=  7 NShTot=        1410 NShNF=        1410 NShFF=           0 MinMC=       7
           NShCPU=        1410 NBCPU=         404 AvBCPU=         3.5
           NShGPU=           0 NBGPU=           0 AvBGPU=         0.0
 IPart=  4 NShTot=        1501 NShNF=        1501 NShFF=           0 MinMC=       7
           NShCPU=        1501 NBCPU=         480 AvBCPU=         3.1
           NShGPU=           0 NBGPU=           0 AvBGPU=         0.0
 CoulSu:  NxtVal=            313 LenVP=       27953938 MinMC=       7.
 ReadGW:  IGet=0 IStart=           1 Next=           1 LGW=           0.
 Remaining memory in FofDFT      640.00 Mw
 CkSvGd:  ISavGI=        -1 IRadAn=       5 IRASav=       5 ISavGd=        -1.
 CalDSu-InSpLW:  IPartL=    0 NPrtUS=   24 NPrtUL=    1 DoSpLW=F IThBeg=    0 IThEnd=   23 NThAct=   24.
 CalDSu:  NPrtUS=  24 ThrOK=T IAlg=1 NPAlg=2 DoDPD=T LenP=        2145 LenD1P=             0 GPUOK=F
          ISkipM=0 DoSpLW=F IThBeg=    0 IThEnd=   23.
 IPart=  0 IRanGd=          0 ScrnBf=T ScrnGd=T RCrit=4.00D+00 DoMicB=T.
 IPart= 17         1848 of         2067 points in       6 batches and       28 microbatches, Max-NSigAt=       3 Max-NSgAt2=       3
 IPart= 19          617 of          618 points in       1 batches and        2 microbatches, Max-NSigAt=       3 Max-NSgAt2=       3
 IPart= 22         1513 of         1558 points in       3 batches and       15 microbatches, Max-NSigAt=       3 Max-NSgAt2=       3
 IPart= 20         1428 of         1558 points in       3 batches and       14 microbatches, Max-NSigAt=       3 Max-NSgAt2=       3
 IPart= 12         1478 of         1558 points in       3 batches and        9 microbatches, Max-NSigAt=       3 Max-NSgAt2=       3
 IPart= 21          896 of          940 points in       2 batches and       14 microbatches, Max-NSigAt=       3 Max-NSgAt2=       3
 IPart= 14         1127 of         1127 points in       1 batches and        3 microbatches, Max-NSigAt=       3 Max-NSgAt2=       3
 IPart=  3         1518 of         1558 points in       3 batches and       14 microbatches, Max-NSigAt=       3 Max-NSgAt2=       3
 IPart=  9         1176 of         1262 points in       3 batches and       14 microbatches, Max-NSigAt=       3 Max-NSgAt2=       3
 IPart=  8         2158 of         2263 points in       5 batches and       19 microbatches, Max-NSigAt=       3 Max-NSgAt2=       3
 IPart=  6         1465 of         1545 points in       3 batches and       10 microbatches, Max-NSigAt=       3 Max-NSgAt2=       3
 IPart= 16          863 of          966 points in       3 batches and       16 microbatches, Max-NSigAt=       3 Max-NSgAt2=       3
 IPart=  0         1372 of         1372 points in       1 batches and        3 microbatches, Max-NSigAt=       3 Max-NSgAt2=       3
 IPart= 11         1188 of         1262 points in       3 batches and       12 microbatches, Max-NSigAt=       3 Max-NSgAt2=       3
 IPart= 18         1113 of         1162 points in       2 batches and        3 microbatches, Max-NSigAt=       3 Max-NSgAt2=       3
 IPart=  5         1365 of         1365 points in       1 batches and        3 microbatches, Max-NSigAt=       3 Max-NSgAt2=       3
 IPart=  1         1495 of         1558 points in       3 batches and       13 microbatches, Max-NSigAt=       3 Max-NSgAt2=       3
 IPart= 13         1514 of         1558 points in       3 batches and       10 microbatches, Max-NSigAt=       3 Max-NSgAt2=       3
 IPart= 15         1223 of         1236 points in       2 batches and        4 microbatches, Max-NSigAt=       3 Max-NSgAt2=       3
 IPart=  2         1229 of         1236 points in       2 batches and        5 microbatches, Max-NSigAt=       3 Max-NSgAt2=       3
 IPart= 10         2799 of         2879 points in       4 batches and       23 microbatches, Max-NSigAt=       3 Max-NSgAt2=       3
 IPart= 23         1288 of         1288 points in       1 batches and        3 microbatches, Max-NSigAt=       3 Max-NSgAt2=       3
 IPart=  7         1868 of         1906 points in       2 batches and        5 microbatches, Max-NSigAt=       3 Max-NSgAt2=       3
 IPart=  4         1617 of         1617 points in       1 batches and        4 microbatches, Max-NSigAt=       3 Max-NSgAt2=       3
 Polarizability after L703:
                1             2             3 
      1  0.000000D+00
      2  0.000000D+00  0.000000D+00
      3  0.000000D+00  0.000000D+00  0.000000D+00
 Dipole Derivatives after L703:
                 1             2             3             4             5 
      1  -0.132131D+01 -0.443705D-02  0.000000D+00  0.662593D+00 -0.241581D+00
      2  -0.578025D-02 -0.830618D+00  0.000000D+00 -0.193169D+00  0.409947D+00
      3   0.000000D+00  0.000000D+00 -0.543246D+00  0.000000D+00  0.000000D+00
                 6             7             8             9 
      1   0.000000D+00  0.658717D+00  0.246018D+00  0.000000D+00
      2   0.000000D+00  0.198949D+00  0.420670D+00  0.000000D+00
      3   0.270201D+00  0.000000D+00  0.000000D+00  0.273045D+00
 Hessian after L703:
                1             2             3             4             5 
      1  0.617136D+00
      2 -0.179765D-01  0.391922D+00
      3  0.000000D+00  0.000000D+00  0.201892D-01
      4 -0.322759D+00  0.169854D+00  0.000000D+00  0.345649D+00
      5  0.224646D+00 -0.197892D+00  0.000000D+00 -0.196778D+00  0.186385D+00
      6  0.000000D+00  0.000000D+00 -0.742684D-02  0.000000D+00  0.000000D+00
      7 -0.294377D+00 -0.151878D+00  0.000000D+00 -0.228899D-01 -0.278689D-01
      8 -0.206670D+00 -0.194030D+00  0.000000D+00  0.269236D-01  0.115074D-01
      9  0.000000D+00  0.000000D+00 -0.127624D-01  0.000000D+00  0.000000D+00
                6             7             8             9 
      6  0.110019D-01
      7  0.000000D+00  0.317267D+00
      8  0.000000D+00  0.179746D+00  0.182522D+00
      9 -0.357503D-02  0.000000D+00  0.000000D+00  0.163374D-01
 Leave Link  703 at Thu Mar 31 22:21:14 2022, MaxMem=   671088640 cpu:              61.0 elap:               3.9
 (Enter /shared/centos7/gaussian/g16/l716.exe)
 FrcOut:
 IF    =        58 IFX   =        67 IFXYZ =        76
 IFFX  =        85 IFFFX =       130 IFLen =         9
 IFFLen=        45 IFFFLn=         0 IEDerv=       130
 LEDerv=       485 IFroze=       751 ICStrt=      7637
 Dipole        = 2.32161508D-03-7.56541840D-01 1.36439658D-32
 DipoleDeriv   =-1.32130987D+00-5.78024723D-03 2.02869457D-32
                -4.43705428D-03-8.30617670D-01 3.82199017D-33
                 6.57696105D-32 1.17994043D-32-5.43245673D-01
                 6.62593024D-01-1.93168571D-01-8.13691717D-33
                -2.41580898D-01 4.09947441D-01 3.38641889D-33
                -2.23933931D-32 1.00541562D-32 2.70200657D-01
                 6.58716844D-01 1.98948819D-01-1.21500286D-32
                 2.46017952D-01 4.20670229D-01-7.20840905D-33
                -4.33762173D-32-2.18535606D-32 2.73045017D-01
 Polarizability= 0.00000000D+00 0.00000000D+00 0.00000000D+00
                 0.00000000D+00 0.00000000D+00 0.00000000D+00
 Quadrupole    = 1.37836871D+00-2.58804803D-01-1.11956391D+00
                 2.47117464D-02-7.36980661D-32-1.54147723D-32
 Forces in standard orientation:
 -------------------------------------------------------------------
 Center     Atomic                   Forces (Hartrees/Bohr)
 Number     Number              X              Y              Z
 -------------------------------------------------------------------
      1        8           0.007921869    0.021613022   -0.000000000
      2        1           0.021721274   -0.007627406   -0.000000000
      3        1          -0.029643143   -0.013985617    0.000000000
 -------------------------------------------------------------------
 Cartesian Forces:  Max     0.029643143 RMS     0.015399074
 ***** Axes restored to original set *****
 Rotating derivatives, DoTrsp=F IDiff=-2 LEDeriv=    484 LFDPrp=       0 LDFDPr=       0.
 -------------------------------------------------------------------
 Center     Atomic                   Forces (Hartrees/Bohr)
 Number     Number              X              Y              Z
 -------------------------------------------------------------------
      1        8           0.008240786   -0.021493445   -0.000000000
      2        1           0.021606042    0.007947956   -0.000000000
      3        1          -0.029846828    0.013545489    0.000000000
 -------------------------------------------------------------------
 Cartesian Forces:  Max     0.029846828 RMS     0.015399074
 Force constants in Cartesian coordinates: 
                1             2             3             4             5 
      1  0.616555D+00
      2  0.213005D-01  0.392503D+00
      3  0.000000D+00  0.000000D+00  0.201892D-01
      4 -0.316896D+00 -0.171615D+00  0.000000D+00  0.339792D+00
      5 -0.226407D+00 -0.203756D+00  0.000000D+00  0.199048D+00  0.192242D+00
      6  0.000000D+00  0.000000D+00 -0.742684D-02  0.000000D+00  0.000000D+00
      7 -0.299659D+00  0.150314D+00  0.000000D+00 -0.228963D-01  0.273598D-01
      8  0.205107D+00 -0.188747D+00  0.000000D+00 -0.274327D-01  0.115139D-01
      9  0.000000D+00  0.000000D+00 -0.127624D-01  0.000000D+00  0.000000D+00
                6             7             8             9 
      6  0.110019D-01
      7  0.000000D+00  0.322556D+00
      8  0.000000D+00 -0.177674D+00  0.177233D+00
      9 -0.357503D-02  0.000000D+00  0.000000D+00  0.163374D-01
 Cartesian forces in FCRed:
 I=    1 X=   8.240785975663D-03 Y=  -2.149344535873D-02 Z=   0.000000000000D+00
 I=    2 X=   2.160604204181D-02 Y=   7.947956246594D-03 Z=   0.000000000000D+00
 I=    3 X=  -2.984682801747D-02 Y=   1.354548911214D-02 Z=   0.000000000000D+00
 Cartesian force constants in FCRed: 
                1             2             3             4             5 
      1  0.616555D+00
      2  0.213005D-01  0.392503D+00
      3  0.000000D+00  0.000000D+00  0.201892D-01
      4 -0.316896D+00 -0.171615D+00  0.000000D+00  0.339792D+00
      5 -0.226407D+00 -0.203756D+00  0.000000D+00  0.199048D+00  0.192242D+00
      6  0.000000D+00  0.000000D+00 -0.742684D-02  0.000000D+00  0.000000D+00
      7 -0.299659D+00  0.150314D+00  0.000000D+00 -0.228963D-01  0.273598D-01
      8  0.205107D+00 -0.188747D+00  0.000000D+00 -0.274327D-01  0.115139D-01
      9  0.000000D+00  0.000000D+00 -0.127624D-01  0.000000D+00  0.000000D+00
                6             7             8             9 
      6  0.110019D-01
      7  0.000000D+00  0.322556D+00
      8  0.000000D+00 -0.177674D+00  0.177233D+00
      9 -0.357503D-02  0.000000D+00  0.000000D+00  0.163374D-01
 FormGI is forming the generalized inverse of G from B-inverse, IUseBI=4.
 Internal forces: 
                 1 
      1  -0.221224D-01
      2  -0.321656D-01
      3  -0.118034D-01
 Internal force constants: 
                1             2             3 
      1  0.478092D+00
      2 -0.709125D-02  0.441606D+00
      3  0.259550D-01  0.263678D-01  0.144089D+00
 Force constants in internal coordinates: 
                1             2             3 
      1  0.478092D+00
      2 -0.709125D-02  0.441606D+00
      3  0.259550D-01  0.263678D-01  0.144089D+00
 Final forces over variables, Energy=-7.64234256D+01:
 -2.21224320D-02-3.21656356D-02-1.18033617D-02
 Leave Link  716 at Thu Mar 31 22:21:15 2022, MaxMem=   671088640 cpu:               6.6 elap:               0.4
 (Enter /shared/centos7/gaussian/g16/l103.exe)

 GradGradGradGradGradGradGradGradGradGradGradGradGradGradGradGradGradGrad
 Berny optimization.
 Red2BG is reusing G-inverse.
 Internal  Forces:  Max     0.032165636 RMS     0.023546758
 Search for a local minimum.
 Step number   1 out of a maximum of  100
 All quantities printed in internal units (Hartrees-Bohrs-Radians)
 RMS Force = .23547D-01 SwitMx=.10000D-02 MixMth= 1
 Mixed Optimization -- RFO/linear search
 Second derivative matrix not updated -- analytic derivatives used.
 The second derivative matrix:
                          R1        R2        A1
           R1           0.47809
           R2          -0.00709   0.44161
           A1           0.02596   0.02637   0.14409
 ITU=  0
     Eigenvalues ---    0.13970   0.44331   0.48078
 RFO step:  Lambda=-3.90286358D-03 EMin= 1.39697868D-01
 Linear search not attempted -- first point.
 Iteration  1 RMS(Cart)=  0.06455891 RMS(Int)=  0.00129762
 Iteration  2 RMS(Cart)=  0.00090129 RMS(Int)=  0.00000079
 Iteration  3 RMS(Cart)=  0.00000088 RMS(Int)=  0.00000000
 ITry= 1 IFail=0 DXMaxC= 8.26D-02 DCOld= 1.00D+10 DXMaxT= 3.00D-01 DXLimC= 3.00D+00 Rises=F
 ClnCor:  largest displacement from symmetrization is 4.48D-16 for atom     3.
 Variable       Old X    -DE/DX   Delta X   Delta X   Delta X     New X
                                 (Linear)    (Quad)   (Total)
    R1        1.85253  -0.02212   0.00000  -0.04370  -0.04370   1.80882
    R2        1.87406  -0.03217   0.00000  -0.06936  -0.06936   1.80470
    A1        1.88926  -0.01180   0.00000  -0.05973  -0.05973   1.82953
         Item               Value     Threshold  Converged?
 Maximum Force            0.032166     0.000450     NO 
 RMS     Force            0.023547     0.000300     NO 
 Maximum Displacement     0.082554     0.001800     NO 
 RMS     Displacement     0.064310     0.001200     NO 
 Predicted change in Energy=-1.971508D-03
 Lowest energy point so far.  Saving SCF results.
 GradGradGradGradGradGradGradGradGradGradGradGradGradGradGradGradGradGrad

 Leave Link  103 at Thu Mar 31 22:21:16 2022, MaxMem=   671088640 cpu:              15.1 elap:               1.0
 (Enter /shared/centos7/gaussian/g16/l202.exe)
                          Input orientation:                          
 ---------------------------------------------------------------------
 Center     Atomic      Atomic             Coordinates (Angstroms)
 Number     Number       Type             X           Y           Z
 ---------------------------------------------------------------------
      1          8           0       -0.000990    0.388798   -0.000000
      2          1           0       -0.757125   -0.198118    0.000000
      3          1           0        0.758114   -0.190681   -0.000000
 ---------------------------------------------------------------------
                    Distance matrix (angstroms):
                    1          2          3
     1  O    0.000000
     2  H    0.957189   0.000000
     3  H    0.955005   1.515257   0.000000
 Stoichiometry    H2O
 Framework group  CS[SG(H2O)]
 Deg. of freedom     3
 Full point group                 CS      NOp   2
 RotChk:  IX=0 Diff= 1.73D-02
 Largest Abelian subgroup         CS      NOp   2
 Largest concise Abelian subgroup C1      NOp   1
                         Standard orientation:                         
 ---------------------------------------------------------------------
 Center     Atomic      Atomic             Coordinates (Angstroms)
 Number     Number       Type             X           Y           Z
 ---------------------------------------------------------------------
      1          8           0        0.000000    0.116640    0.000000
      2          1           0        0.757627   -0.468349    0.000000
      3          1           0       -0.757627   -0.464770    0.000000
 ---------------------------------------------------------------------
 Rotational constants (GHZ):         830.0776852         436.8039903         286.1997708
 Leave Link  202 at Thu Mar 31 22:21:16 2022, MaxMem=   671088640 cpu:               1.2 elap:               0.1
 (Enter /shared/centos7/gaussian/g16/l301.exe)
 Standard basis: CC-pVTZ (5D, 7F)
 Ernie: Thresh=  0.10000D-02 Tol=  0.10000D-05 Strict=F.
 Ernie:  3 primitive shells out of 42 were deleted.
 There are    46 symmetry adapted cartesian basis functions of A'  symmetry.
 There are    19 symmetry adapted cartesian basis functions of A"  symmetry.
 There are    40 symmetry adapted basis functions of A'  symmetry.
 There are    18 symmetry adapted basis functions of A"  symmetry.
    58 basis functions,    86 primitive gaussians,    65 cartesian basis functions
     5 alpha electrons        5 beta electrons
       nuclear repulsion energy         9.2048688929 Hartrees.
 IExCor= 4336 DFT=T Ex+Corr=M062X ExCW=0 ScaHFX=  0.540000
 ScaDFX=  1.000000  1.000000  1.000000  1.000000 ScalE2=  1.000000  1.000000
 IRadAn=      5 IRanWt=     -1 IRanGd=            0 ICorTp=0 IEmpDi=  4
 NAtoms=    3 NActive=    3 NUniq=    3 SFac= 1.00D+00 NAtFMM=   60 NAOKFM=F Big=F
 Integral buffers will be    131072 words long.
 Raffenetti 2 integral format.
 Two-electron integral symmetry is turned on.
 Leave Link  301 at Thu Mar 31 22:21:16 2022, MaxMem=   671088640 cpu:               1.9 elap:               0.1
 (Enter /shared/centos7/gaussian/g16/l302.exe)
 NPDir=0 NMtPBC=     1 NCelOv=     1 NCel=       1 NClECP=     1 NCelD=      1
         NCelK=      1 NCelE2=     1 NClLst=     1 CellRange=     0.0.
 One-electron integrals computed using PRISM.
 One-electron integral symmetry used in STVInt
 NBasis=    58 RedAO= T EigKep=  2.51D-03  NBF=    40    18
 NBsUse=    58 1.00D-06 EigRej= -1.00D+00 NBFU=    40    18
 Precomputing XC quadrature grid using
 IXCGrd= 4 IRadAn=           5 IRanWt=          -1 IRanGd=           0 AccXCQ= 0.00D+00.
 Generated NRdTot=       0 NPtTot=           0 NUsed=           0 NTot=          32
 NSgBfM=    65    65    65    65    65 MxSgAt=     3 MxSgA2=     3.
 Leave Link  302 at Thu Mar 31 22:21:18 2022, MaxMem=   671088640 cpu:              28.0 elap:               1.8
 (Enter /shared/centos7/gaussian/g16/l303.exe)
 DipDrv:  MaxL=1.
 Leave Link  303 at Thu Mar 31 22:21:18 2022, MaxMem=   671088640 cpu:               5.6 elap:               0.4
 (Enter /shared/centos7/gaussian/g16/l401.exe)
 Initial guess from the checkpoint file:  "/scratch/harris.se/guassian_scratch/Gau-49055.chk"
 B after Tr=    -0.000000    0.000000   -0.000000
         Rot=    0.999987   -0.000000    0.000000    0.005026 Ang=   0.58 deg.
 Guess basis will be translated and rotated to current coordinates.
 JPrj=2 DoOrth=T DoCkMO=T.
 Initial guess orbital symmetries:
       Occupied  (A') (A') (A') (A') (A")
       Virtual   (A') (A') (A') (A') (A') (A") (A') (A') (A") (A")
                 (A') (A') (A') (A') (A") (A") (A') (A') (A') (A')
                 (A') (A") (A') (A") (A') (A") (A') (A') (A") (A")
                 (A') (A') (A") (A') (A') (A") (A') (A') (A') (A')
                 (A") (A') (A") (A") (A') (A") (A') (A') (A") (A')
                 (A') (A') (A')
 The electronic state of the initial guess is 1-A'.
 Generating alternative initial guess.
 ExpMin= 1.03D-01 ExpMax= 1.53D+04 ExpMxC= 5.22D+02 IAcc=2 IRadAn=         4 AccDes= 0.00D+00
 Harris functional with IExCor= 1009 and IRadAn=       4 diagonalized for initial guess.
 HarFok:  IExCor= 1009 AccDes= 0.00D+00 IRadAn=         4 IDoV= 1 UseB2=F ITyADJ=14
 ICtDFT=  3500011 ScaDFX=  1.000000  1.000000  1.000000  1.000000
 FoFCou: FMM=F IPFlag=           0 FMFlag=      100000 FMFlg1=           0
         NFxFlg=           0 DoJE=T BraDBF=F KetDBF=T FulRan=T
         wScrn=  0.000000 ICntrl=       500 IOpCl=  0 I1Cent=   200000004 NGrid=           0
         NMat0=    1 NMatS0=      1 NMatT0=    0 NMatD0=    1 NMtDS0=    0 NMtDT0=    0
 Petite list used in FoFCou.
 Harris En= -76.4219501738963    
 Leave Link  401 at Thu Mar 31 22:21:21 2022, MaxMem=   671088640 cpu:              53.7 elap:               3.4
 (Enter /shared/centos7/gaussian/g16/l502.exe)
 Keep R1 ints in memory in symmetry-blocked form, NReq=22797014.
 FoFCou: FMM=F IPFlag=           0 FMFlag=           0 FMFlg1=           0
         NFxFlg=           0 DoJE=F BraDBF=F KetDBF=F FulRan=T
         wScrn=  0.000000 ICntrl=       600 IOpCl=  0 I1Cent=           0 NGrid=           0
         NMat0=    1 NMatS0=   1711 NMatT0=    0 NMatD0=    1 NMtDS0=    0 NMtDT0=    0
 Petite list used in FoFCou.
 Closed shell SCF:
 Using DIIS extrapolation, IDIIS=  1040.
 NGot=   671088640 LenX=   670322486 LenY=   670317820
 Requested convergence on RMS density matrix=1.00D-08 within 900 cycles.
 Requested convergence on MAX density matrix=1.00D-06.
 Requested convergence on             energy=1.00D-06.
 No special actions if energy rises.
 Integral accuracy reduced to 1.0D-05 until final iterations.

 Cycle   1  Pass 0  IDiag  1:
 E= -76.4247283247828    
 DIIS: error= 4.07D-03 at cycle   1 NSaved=   1.
 NSaved= 1 IEnMin= 1 EnMin= -76.4247283247828     IErMin= 1 ErrMin= 4.07D-03
 ErrMax= 4.07D-03  0.00D+00 EMaxC= 1.00D-01 BMatC= 7.46D-04 BMatP= 7.46D-04
 IDIUse=3 WtCom= 9.59D-01 WtEn= 4.07D-02
 Coeff-Com:  0.100D+01
 Coeff-En:   0.100D+01
 Coeff:      0.100D+01
 Gap=     0.542 Goal=   None    Shift=    0.000
 GapD=    0.542 DampG=2.000 DampE=1.000 DampFc=2.0000 IDamp=-1.
 RMSDP=3.34D-04 MaxDP=5.23D-03              OVMax= 1.00D-02

 Cycle   2  Pass 0  IDiag  1:
 E= -76.4251373822292     Delta-E=       -0.000409057446 Rises=F Damp=F
 DIIS: error= 2.36D-03 at cycle   2 NSaved=   2.
 NSaved= 2 IEnMin= 2 EnMin= -76.4251373822292     IErMin= 2 ErrMin= 2.36D-03
 ErrMax= 2.36D-03  0.00D+00 EMaxC= 1.00D-01 BMatC= 1.77D-04 BMatP= 7.46D-04
 IDIUse=3 WtCom= 9.76D-01 WtEn= 2.36D-02
 Coeff-Com:  0.262D+00 0.738D+00
 Coeff-En:   0.000D+00 0.100D+01
 Coeff:      0.256D+00 0.744D+00
 Gap=     0.455 Goal=   None    Shift=    0.000
 RMSDP=1.30D-04 MaxDP=2.82D-03 DE=-4.09D-04 OVMax= 3.96D-03

 Cycle   3  Pass 0  IDiag  1:
 E= -76.4252096935045     Delta-E=       -0.000072311275 Rises=F Damp=F
 DIIS: error= 1.20D-03 at cycle   3 NSaved=   3.
 NSaved= 3 IEnMin= 3 EnMin= -76.4252096935045     IErMin= 3 ErrMin= 1.20D-03
 ErrMax= 1.20D-03  0.00D+00 EMaxC= 1.00D-01 BMatC= 5.33D-05 BMatP= 1.77D-04
 IDIUse=3 WtCom= 9.88D-01 WtEn= 1.20D-02
 Coeff-Com:  0.309D-03 0.349D+00 0.650D+00
 Coeff-En:   0.000D+00 0.210D+00 0.790D+00
 Coeff:      0.305D-03 0.348D+00 0.652D+00
 Gap=     0.458 Goal=   None    Shift=    0.000
 RMSDP=4.89D-05 MaxDP=8.20D-04 DE=-7.23D-05 OVMax= 1.88D-03

 Cycle   4  Pass 0  IDiag  1:
 E= -76.4252423794751     Delta-E=       -0.000032685971 Rises=F Damp=F
 DIIS: error= 1.15D-04 at cycle   4 NSaved=   4.
 NSaved= 4 IEnMin= 4 EnMin= -76.4252423794751     IErMin= 4 ErrMin= 1.15D-04
 ErrMax= 1.15D-04  0.00D+00 EMaxC= 1.00D-01 BMatC= 4.42D-07 BMatP= 5.33D-05
 IDIUse=3 WtCom= 9.99D-01 WtEn= 1.15D-03
 Coeff-Com: -0.814D-02 0.271D-01 0.117D+00 0.864D+00
 Coeff-En:   0.000D+00 0.000D+00 0.000D+00 0.100D+01
 Coeff:     -0.813D-02 0.271D-01 0.117D+00 0.864D+00
 Gap=     0.457 Goal=   None    Shift=    0.000
 RMSDP=8.70D-06 MaxDP=1.35D-04 DE=-3.27D-05 OVMax= 2.43D-04

 Initial convergence to 1.0D-05 achieved.  Increase integral accuracy.
 Cycle   5  Pass 1  IDiag  1:
 E= -76.4252579644704     Delta-E=       -0.000015584995 Rises=F Damp=F
 DIIS: error= 3.66D-05 at cycle   1 NSaved=   1.
 NSaved= 1 IEnMin= 1 EnMin= -76.4252579644704     IErMin= 1 ErrMin= 3.66D-05
 ErrMax= 3.66D-05  0.00D+00 EMaxC= 1.00D-01 BMatC= 7.08D-08 BMatP= 7.08D-08
 IDIUse=1 WtCom= 1.00D+00 WtEn= 0.00D+00
 Coeff-Com:  0.100D+01
 Coeff:      0.100D+01
 Gap=     0.457 Goal=   None    Shift=    0.000
 RMSDP=8.70D-06 MaxDP=1.35D-04 DE=-1.56D-05 OVMax= 9.96D-05

 Cycle   6  Pass 1  IDiag  1:
 E= -76.4252580093635     Delta-E=       -0.000000044893 Rises=F Damp=F
 DIIS: error= 6.49D-06 at cycle   2 NSaved=   2.
 NSaved= 2 IEnMin= 2 EnMin= -76.4252580093635     IErMin= 2 ErrMin= 6.49D-06
 ErrMax= 6.49D-06  0.00D+00 EMaxC= 1.00D-01 BMatC= 1.29D-09 BMatP= 7.08D-08
 IDIUse=1 WtCom= 1.00D+00 WtEn= 0.00D+00
 Coeff-Com: -0.168D-01 0.102D+01
 Coeff:     -0.168D-01 0.102D+01
 Gap=     0.457 Goal=   None    Shift=    0.000
 RMSDP=6.39D-07 MaxDP=7.04D-06 DE=-4.49D-08 OVMax= 2.58D-05

 Cycle   7  Pass 1  IDiag  1:
 E= -76.4252580111707     Delta-E=       -0.000000001807 Rises=F Damp=F
 DIIS: error= 3.19D-06 at cycle   3 NSaved=   3.
 NSaved= 3 IEnMin= 3 EnMin= -76.4252580111707     IErMin= 3 ErrMin= 3.19D-06
 ErrMax= 3.19D-06  0.00D+00 EMaxC= 1.00D-01 BMatC= 3.32D-10 BMatP= 1.29D-09
 IDIUse=1 WtCom= 1.00D+00 WtEn= 0.00D+00
 Coeff-Com: -0.210D-01 0.289D+00 0.732D+00
 Coeff:     -0.210D-01 0.289D+00 0.732D+00
 Gap=     0.457 Goal=   None    Shift=    0.000
 RMSDP=2.04D-07 MaxDP=3.79D-06 DE=-1.81D-09 OVMax= 1.01D-05

 Cycle   8  Pass 1  IDiag  1:
 E= -76.4252580114189     Delta-E=       -0.000000000248 Rises=F Damp=F
 DIIS: error= 1.68D-06 at cycle   4 NSaved=   4.
 NSaved= 4 IEnMin= 4 EnMin= -76.4252580114189     IErMin= 4 ErrMin= 1.68D-06
 ErrMax= 1.68D-06  0.00D+00 EMaxC= 1.00D-01 BMatC= 8.04D-11 BMatP= 3.32D-10
 IDIUse=1 WtCom= 1.00D+00 WtEn= 0.00D+00
 Coeff-Com: -0.861D-02 0.133D-01 0.314D+00 0.682D+00
 Coeff:     -0.861D-02 0.133D-01 0.314D+00 0.682D+00
 Gap=     0.457 Goal=   None    Shift=    0.000
 RMSDP=8.59D-08 MaxDP=1.70D-06 DE=-2.48D-10 OVMax= 2.53D-06

 Cycle   9  Pass 1  IDiag  1:
 E= -76.4252580114820     Delta-E=       -0.000000000063 Rises=F Damp=F
 DIIS: error= 3.14D-07 at cycle   5 NSaved=   5.
 NSaved= 5 IEnMin= 5 EnMin= -76.4252580114820     IErMin= 5 ErrMin= 3.14D-07
 ErrMax= 3.14D-07  0.00D+00 EMaxC= 1.00D-01 BMatC= 2.89D-12 BMatP= 8.04D-11
 IDIUse=1 WtCom= 1.00D+00 WtEn= 0.00D+00
 Coeff-Com:  0.221D-02-0.424D-01-0.737D-01 0.770D-01 0.104D+01
 Coeff:      0.221D-02-0.424D-01-0.737D-01 0.770D-01 0.104D+01
 Gap=     0.457 Goal=   None    Shift=    0.000
 RMSDP=3.90D-08 MaxDP=5.74D-07 DE=-6.31D-11 OVMax= 2.09D-06

 Cycle  10  Pass 1  IDiag  1:
 E= -76.4252580114872     Delta-E=       -0.000000000005 Rises=F Damp=F
 DIIS: error= 2.02D-08 at cycle   6 NSaved=   6.
 NSaved= 6 IEnMin= 6 EnMin= -76.4252580114872     IErMin= 6 ErrMin= 2.02D-08
 ErrMax= 2.02D-08  0.00D+00 EMaxC= 1.00D-01 BMatC= 1.00D-14 BMatP= 2.89D-12
 IDIUse=1 WtCom= 1.00D+00 WtEn= 0.00D+00
 Coeff-Com:  0.786D-04 0.700D-03-0.270D-02-0.115D-01-0.548D-02 0.102D+01
 Coeff:      0.786D-04 0.700D-03-0.270D-02-0.115D-01-0.548D-02 0.102D+01
 Gap=     0.457 Goal=   None    Shift=    0.000
 RMSDP=3.04D-09 MaxDP=5.64D-08 DE=-5.22D-12 OVMax= 7.59D-08

 SCF Done:  E(RM062X) =  -76.4252580115     A.U. after   10 cycles
            NFock= 10  Conv=0.30D-08     -V/T= 2.0039
 KE= 7.612728872023D+01 PE=-1.992665254987D+02 EE= 3.750910987406D+01
 Leave Link  502 at Thu Mar 31 22:21:32 2022, MaxMem=   671088640 cpu:             168.6 elap:              10.6
 (Enter /shared/centos7/gaussian/g16/l701.exe)
 SCFChk:  SCF convergence  3.04D-09 required  1.00D-08
 ... and contract with generalized density number  0.
 Compute integral first derivatives.
 DipInt: DoE/N= T T RetVal/Mat= T F Init=T NMatP=  1 IDeriv=0 Min/MaxMlt=  1  1
 Entering OneElI...
 Multipole integrals L=1 to 1 MinM= 0 MaxM= 0.
 Requested accuracy = 0.1000D-12
 PrmmSu-InSpLW:  IPartL=    0 NPrtUS=    1 NPrtUL=    1 DoSpLW=F IThBeg=    0 IThEnd=    0 NThAct=    1.
 PrsmSu:  NPrtUS=   1 ThrOK=F IAlg=1 NPAlg=1 LenDen=           0 ISkipM=0 DoSpLW=F IThBeg=    0 IThEnd=    0.
 Prism:   IPart=     0 DynPar=F LinDyn=F Incr=           2.
 PRISM was handed   671052506 working-precision words and   253 shell-pairs
 IPart=  0 NShTot=         253 NBatch=          35 AvBLen=         7.2
 PrSmSu:  NxtVal=              3.
 Entering OneElI...
 Calculate overlap and kinetic energy integrals
    NBasis =  65  MinDer = 1  MaxDer = 1
 Requested accuracy = 0.1000D-12
 PrmmSu-InSpLW:  IPartL=    0 NPrtUS=   24 NPrtUL=    1 DoSpLW=F IThBeg=    0 IThEnd=   23 NThAct=   24.
 PrsmSu:  NPrtUS=  24 ThrOK=T IAlg=1 NPAlg=1 LenDen=           0 ISkipM=0 DoSpLW=F IThBeg=    0 IThEnd=   23.
 Prism:   IPart=     0 DynPar=F LinDyn=F Incr=           1.
 PRISM was handed    27953510 working-precision words and   253 shell-pairs
 PRISM was handed    27953510 working-precision words and   253 shell-pairs
 PRISM was handed    27953510 working-precision words and   253 shell-pairs
 PRISM was handed    27953510 working-precision words and   253 shell-pairs
 PRISM was handed    27953510 working-precision words and   253 shell-pairs
 IPart=  0 NShTot=          37 NBatch=          36 AvBLen=         1.0
 IPart= 14 NShTot=           6 NBatch=           6 AvBLen=         1.0
 IPart=  1 NShTot=          26 NBatch=          25 AvBLen=         1.0
 IPart= 22 NShTot=           3 NBatch=           3 AvBLen=         1.0
 PRISM was handed    27953510 working-precision words and   253 shell-pairs
 PRISM was handed    27953510 working-precision words and   253 shell-pairs
 PRISM was handed    27953510 working-precision words and   253 shell-pairs
 PRISM was handed    27953510 working-precision words and   253 shell-pairs
 IPart=  9 NShTot=           9 NBatch=           8 AvBLen=         1.1
 PRISM was handed    27953510 working-precision words and   253 shell-pairs
 PRISM was handed    27953510 working-precision words and   253 shell-pairs
 PRISM was handed    27953510 working-precision words and   253 shell-pairs
 IPart=  4 NShTot=          17 NBatch=          16 AvBLen=         1.1
 IPart=  8 NShTot=           9 NBatch=           8 AvBLen=         1.1
 PRISM was handed    27953510 working-precision words and   253 shell-pairs
 PRISM was handed    27953510 working-precision words and   253 shell-pairs
 PRISM was handed    27953510 working-precision words and   253 shell-pairs
 PRISM was handed    27953510 working-precision words and   253 shell-pairs
 PRISM was handed    27953510 working-precision words and   253 shell-pairs
 PRISM was handed    27953510 working-precision words and   253 shell-pairs
 PRISM was handed    27953510 working-precision words and   253 shell-pairs
 IPart= 20 NShTot=           5 NBatch=           5 AvBLen=         1.0
 IPart=  2 NShTot=          21 NBatch=          20 AvBLen=         1.1
 IPart=  6 NShTot=          10 NBatch=           9 AvBLen=         1.1
[...]
     3  H    0.264962
 Sum of APT charges =   0.00000
 APT charges with hydrogens summed into heavy atoms:
               1
     1  O    0.000000
 Electronic spatial extent (au):  <R**2>=             19.3149
 Charge=              0.0000 electrons
 Dipole moment (field-independent basis, Debye):
    X=              0.0002    Y=             -1.9597    Z=              0.0000  Tot=              1.9597
 Quadrupole moment (field-independent basis, Debye-Ang):
   XX=             -4.2815   YY=             -6.1581   ZZ=             -7.3624
   XY=              0.0010   XZ=              0.0000   YZ=              0.0000
 Traceless Quadrupole moment (field-independent basis, Debye-Ang):
   XX=              1.6525   YY=             -0.2241   ZZ=             -1.4285
   XY=              0.0010   XZ=              0.0000   YZ=              0.0000
 Octapole moment (field-independent basis, Debye-Ang**2):
  XXX=              0.0006  YYY=             -1.1251  ZZZ=              0.0000  XYY=             -0.0007
  XXY=             -1.3289  XXZ=              0.0000  XZZ=              0.0002  YZZ=             -0.2621
  YYZ=              0.0000  XYZ=             -0.0000
 Hexadecapole moment (field-independent basis, Debye-Ang**3):
 XXXX=             -6.0048 YYYY=             -6.6379 ZZZZ=             -5.7613 XXXY=             -0.0001
 XXXZ=             -0.0000 YYYX=             -0.0001 YYYZ=              0.0000 ZZZX=             -0.0000
 ZZZY=              0.0000 XXYY=             -1.7663 XXZZ=             -2.2759 YYZZ=             -2.1201
 XXYZ=              0.0000 YYXZ=             -0.0000 ZZXY=             -0.0003
 N-N= 9.176623690687D+00 E-N=-1.992052670121D+02  KE= 7.611602141487D+01
 Symmetry A'   KE= 7.156934280112D+01
 Symmetry A"   KE= 4.546678613750D+00
  Exact polarizability:   8.410   0.002   7.113  -0.000   0.000   5.410
 Approx polarizability:   9.001   0.003   7.614   0.000  -0.000   5.341
 No NMR shielding tensors so no spin-rotation constants.
 Leave Link  601 at Thu Mar 31 22:22:17 2022, MaxMem=   671088640 cpu:              17.2 elap:               1.1
 (Enter /shared/centos7/gaussian/g16/l701.exe)
 ... and contract with generalized density number  0.
 Compute integral second derivatives.
 Leave Link  701 at Thu Mar 31 22:22:19 2022, MaxMem=   671088640 cpu:              20.7 elap:               1.3
 (Enter /shared/centos7/gaussian/g16/l702.exe)
 L702 exits ... SP integral derivatives will be done elsewhere.
 Leave Link  702 at Thu Mar 31 22:22:19 2022, MaxMem=   671088640 cpu:               1.6 elap:               0.1
 (Enter /shared/centos7/gaussian/g16/l703.exe)
 Integral derivatives from FoFJK, PRISM(SPDF).
 Compute integral second derivatives, UseDBF=F ICtDFT=           0.
 Calling FoFJK, ICntrl=    100127 FMM=F ISym2X=1 I1Cent= 0 IOpClX= 0 NMat=1 NMatS=1 NMatT=0.
 FoFJK:  IHMeth= 1 ICntrl=  100127 DoSepK=F KAlg= 0 I1Cent=           0 FoldK=F
 IRaf=         0 NMat=       1 IRICut=       1 DoRegI=T DoRafI=F ISym2E= 1 IDoP0=0 IntGTp=1.
 FoFCou: FMM=F IPFlag=           0 FMFlag=      100000 FMFlg1=         800
         NFxFlg=           0 DoJE=F BraDBF=F KetDBF=F FulRan=T
         wScrn=  0.000000 ICntrl=    100127 IOpCl=  0 I1Cent=           0 NGrid=           0
         NMat0=    1 NMatS0=      1 NMatT0=    0 NMatD0=    1 NMtDS0=    0 NMtDT0=    0
 Petite list used in FoFCou.
 Leave Link  703 at Thu Mar 31 22:22:22 2022, MaxMem=   671088640 cpu:              58.4 elap:               3.7
 (Enter /shared/centos7/gaussian/g16/l716.exe)
 Dipole        = 8.11540681D-05-7.71010713D-01 3.64961948D-35
 Polarizability= 8.41007429D+00 2.31146526D-03 7.11324029D+00
                -4.07543203D-12 2.37212213D-12 5.41015384D+00
 Full mass-weighted force constant matrix:
 Low frequencies ---    0.0020    0.0022    0.0025   76.9769  112.5921  148.6112
 Low frequencies --- 1628.9519 3872.1785 3973.9565
 Diagonal vibrational polarizability:
        0.1063197       0.7813389       0.0000000
 Harmonic frequencies (cm**-1), IR intensities (KM/Mole), Raman scattering
 activities (A**4/AMU), depolarization ratios for plane and unpolarized
 incident light, reduced masses (AMU), force constants (mDyne/A),
 and normal coordinates:
                      1                      2                      3
                     A'                     A'                     A'
 Frequencies --   1628.9508              3872.1785              3973.9564
 Red. masses --      1.0827                 1.0452                 1.0821
 Frc consts  --      1.6926                 9.2334                10.0683
 IR Inten    --     75.3820                 9.4062                62.3588
  Atom  AN      X      Y      Z        X      Y      Z        X      Y      Z
     1   8    -0.00  -0.07   0.00    -0.00  -0.05  -0.00    -0.07   0.00  -0.00
     2   1     0.43   0.56   0.00    -0.57   0.39  -0.00     0.57  -0.44   0.00
     3   1    -0.43   0.56  -0.00     0.60   0.41   0.00     0.54   0.42   0.00

 -------------------
 - Thermochemistry -
 -------------------
 Temperature   298.150 Kelvin.  Pressure   1.00000 Atm.
 Atom     1 has atomic number  8 and mass  15.99491
 Atom     2 has atomic number  1 and mass   1.00783
 Atom     3 has atomic number  1 and mass   1.00783
 Molecular mass:    18.01056 amu.
 Principal axes and moments of inertia in atomic units:
                           1         2         3
     Eigenvalues --     2.19134   4.15318   6.34451
           X            1.00000  -0.00085   0.00000
           Y            0.00085   1.00000   0.00000
           Z            0.00000  -0.00000   1.00000
 This molecule is an asymmetric top.
 Rotational symmetry number  1.
 Rotational temperatures (Kelvin)     39.52561    20.85487    13.65179
 Rotational constants (GHZ):         823.58007   434.54486   284.45704
 Zero-point vibrational energy      56673.6 (Joules/Mol)
                                   13.54532 (Kcal/Mol)
 Vibrational temperatures:   2343.70  5571.20  5717.64
          (Kelvin)
 
 Zero-point correction=                           0.021586 (Hartree/Particle)
 Thermal correction to Energy=                    0.024421
 Thermal correction to Enthalpy=                  0.025365
 Thermal correction to Gibbs Free Energy=         0.003297
 Sum of electronic and zero-point Energies=            -76.403690
 Sum of electronic and thermal Energies=               -76.400854
 Sum of electronic and thermal Enthalpies=             -76.399910
 Sum of electronic and thermal Free Energies=          -76.421979
 
                     E (Thermal)             CV                S
                      KCal/Mol        Cal/Mol-Kelvin    Cal/Mol-Kelvin
 Total                   15.325              6.009             46.448
 Electronic               0.000              0.000              0.000
 Translational            0.889              2.981             34.608
 Rotational               0.889              2.981             11.833
 Vibrational             13.547              0.047              0.007
                       Q            Log10(Q)             Ln(Q)
 Total Bot       0.304591D-01         -1.516284         -3.491372
 Total V=0       0.258525D+09          8.412502         19.370501
 Vib (Bot)       0.117864D-09         -9.928618        -22.861488
 Vib (V=0)       0.100039D+01          0.000167          0.000386
 Electronic      0.100000D+01          0.000000          0.000000
 Translational   0.300431D+07          6.477745         14.915559
 Rotational      0.860180D+02          1.934589          4.454557
 
                                                    Gaussian input prepared by AS
 E
                                                             IR Spectrum
 
     3   3                                                                      1                                                    
     9   8                                                                      6                                                    
     7   7                                                                      2                                                    
     4   2                                                                      9                                                    
 
     X   X                                                                      X                                                    
     X   X                                                                      X                                                    
     X                                                                          X                                                    
     X                                                                          X                                                    
     X                                                                          X                                                    
     X                                                                          X                                                    
     X                                                                          X                                                    
     X                                                                          X                                                    
     X                                                                          X                                                    
     X                                                                          X                                                    
     X                                                                          X                                                    
     X                                                                          X                                                    
     X                                                                          X                                                    
     X                                                                          X                                                    
     X                                                                          X                                                    
     X                                                                          X                                                    
     X                                                                          X                                                    
                                                                                X                                                    
                                                                                X                                                    
                                                                                X                                                    
 
 ***** Axes restored to original set *****
 -------------------------------------------------------------------
 Center     Atomic                   Forces (Hartrees/Bohr)
 Number     Number              X              Y              Z
 -------------------------------------------------------------------
      1        8           0.000312750   -0.000357228   -0.000000000
      2        1          -0.000135813    0.000058745    0.000000000
      3        1          -0.000176937    0.000298482    0.000000000
 -------------------------------------------------------------------
 Cartesian Forces:  Max     0.000357228 RMS     0.000202133
 Force constants in Cartesian coordinates: 
                1             2             3             4             5 
      1  0.700633D+00
      2  0.186797D-02  0.464671D+00
      3  0.000000D+00  0.000000D+00  0.142272D-02
      4 -0.348512D+00 -0.211159D+00  0.000000D+00  0.379085D+00
      5 -0.270674D+00 -0.234753D+00  0.000000D+00  0.241105D+00  0.222615D+00
      6  0.000000D+00  0.000000D+00 -0.603418D-03  0.000000D+00  0.000000D+00
      7 -0.352121D+00  0.209291D+00  0.000000D+00 -0.305733D-01  0.295690D-01
      8  0.268806D+00 -0.229919D+00  0.000000D+00 -0.299454D-01  0.121378D-01
      9  0.000000D+00  0.000000D+00 -0.819301D-03  0.000000D+00  0.000000D+00
                6             7             8             9 
      6  0.510146D-03
      7  0.000000D+00  0.382694D+00
      8  0.000000D+00 -0.238860D+00  0.217781D+00
      9  0.932716D-04  0.000000D+00  0.000000D+00  0.726030D-03
 FormGI is forming the generalized inverse of G from B-inverse, IUseBI=4.
 Force constants in internal coordinates: 
                1             2             3 
      1  0.553816D+00
      2 -0.510320D-02  0.552414D+00
      3  0.299115D-01  0.299308D-01  0.157201D+00
 Leave Link  716 at Thu Mar 31 22:22:23 2022, MaxMem=   671088640 cpu:              11.7 elap:               0.8
 (Enter /shared/centos7/gaussian/g16/l103.exe)

 GradGradGradGradGradGradGradGradGradGradGradGradGradGradGradGradGradGrad
 Berny optimization.
 Red2BG is reusing G-inverse.
 Internal  Forces:  Max     0.000321732 RMS     0.000233751
 Search for a local minimum.
 Step number   1 out of a maximum of    2
 All quantities printed in internal units (Hartrees-Bohrs-Radians)
 Second derivative matrix not updated -- analytic derivatives used.
 The second derivative matrix:
                          R1        R2        A1
           R1           0.55382
           R2          -0.00510   0.55241
           A1           0.02991   0.02993   0.15720
 ITU=  0
     Eigenvalues ---    0.15267   0.55246   0.55830
 Angle between quadratic step and forces=  32.41 degrees.
 Linear search not attempted -- first point.
 Iteration  1 RMS(Cart)=  0.00084879 RMS(Int)=  0.00000052
 Iteration  2 RMS(Cart)=  0.00000050 RMS(Int)=  0.00000000
 ITry= 1 IFail=0 DXMaxC= 9.02D-04 DCOld= 1.00D+10 DXMaxT= 3.00D-01 DXLimC= 3.00D+00 Rises=F
 ClnCor:  largest displacement from symmetrization is 2.29D-16 for atom     2.
 Variable       Old X    -DE/DX   Delta X   Delta X   Delta X     New X
                                 (Linear)    (Quad)   (Total)
    R1        1.81200   0.00007   0.00000   0.00003   0.00003   1.81204
    R2        1.81271  -0.00032   0.00000  -0.00067  -0.00067   1.81204
    A1        1.82824   0.00024   0.00000   0.00162   0.00162   1.82986
         Item               Value     Threshold  Converged?
 Maximum Force            0.000322     0.000450     YES
 RMS     Force            0.000234     0.000300     YES
 Maximum Displacement     0.000902     0.001800     YES
 RMS     Displacement     0.000849     0.001200     YES
 Predicted change in Energy=-2.992616D-07
 Optimization completed.
    -- Stationary point found.
                           ----------------------------
                           !   Optimized Parameters   !
                           ! (Angstroms and Degrees)  !
 --------------------------                            --------------------------
 ! Name  Definition              Value          Derivative Info.                !
 --------------------------------------------------------------------------------
 ! R1    R(1,2)                  0.9589         -DE/DX =    0.0001              !
 ! R2    R(1,3)                  0.9592         -DE/DX =   -0.0003              !
 ! A1    A(2,1,3)              104.7505         -DE/DX =    0.0002              !
 --------------------------------------------------------------------------------
 GradGradGradGradGradGradGradGradGradGradGradGradGradGradGradGradGradGrad

 Leave Link  103 at Thu Mar 31 22:22:24 2022, MaxMem=   671088640 cpu:              14.5 elap:               0.9
 (Enter /shared/centos7/gaussian/g16/l9999.exe)

 ----------------------------------------------------------------------

 Electric dipole moment (input orientation):
 (Debye = 10**-18 statcoulomb cm , SI units = C m)
                  (au)            (Debye)         (10**-30 SI)
   Tot        0.771011D+00      0.195971D+01      0.653690D+01
   x          0.366080D-02      0.930483D-02      0.310376D-01
   y         -0.771002D+00     -0.195969D+01     -0.653683D+01
   z          0.000000D+00      0.000000D+00      0.000000D+00

 Dipole polarizability, Alpha (input orientation).
 (esu units = cm**3 , SI units = C**2 m**2 J**-1)
 Alpha(0;0):
               (au)            (10**-24 esu)      (10**-40 SI)
   iso        0.697782D+01      0.103401D+01      0.115049D+01
   aniso      0.260594D+01      0.386160D+00      0.429661D+00
   xx         0.841007D+01      0.124624D+01      0.138663D+01
   yx         0.398251D-02      0.590147D-03      0.656627D-03
   yy         0.711325D+01      0.105407D+01      0.117282D+01
   zx         0.000000D+00      0.000000D+00      0.000000D+00
   zy         0.000000D+00      0.000000D+00      0.000000D+00
   zz         0.541015D+01      0.801702D+00      0.892014D+00

 ----------------------------------------------------------------------

 Dipole orientation:
     8         -0.00007764         -0.00000037         -0.73761289
     1         -1.43537669         -0.00681532          0.36838107
     1          1.43545433          0.00681569          0.36923182

 Electric dipole moment (dipole orientation):
 (Debye = 10**-18 statcoulomb cm , SI units = C m)
                  (au)            (Debye)         (10**-30 SI)
   Tot        0.771011D+00      0.195971D+01      0.653690D+01
   x          0.000000D+00      0.000000D+00      0.000000D+00
   y          0.000000D+00      0.000000D+00      0.000000D+00
   z          0.771011D+00      0.195971D+01      0.653690D+01

 Dipole polarizability, Alpha (dipole orientation).
 (esu units = cm**3 , SI units = C**2 m**2 J**-1)
 Alpha(0;0):
               (au)            (10**-24 esu)      (10**-40 SI)
   iso        0.697782D+01      0.103401D+01      0.115049D+01
   aniso      0.260594D+01      0.386160D+00      0.429661D+00
   xx         0.841001D+01      0.124623D+01      0.138662D+01
   yx         0.142436D-01      0.211069D-02      0.234846D-02
   yy         0.541022D+01      0.801712D+00      0.892025D+00
   zx         0.217494D-02      0.322293D-03      0.358599D-03
   zy         0.103269D-04      0.153028D-05      0.170267D-05
   zz         0.711324D+01      0.105407D+01      0.117281D+01

 ----------------------------------------------------------------------

 Test job not archived.
 1\1\GINC-C3040\Freq\RM062X\CC-pVTZ\H2O1\HARRIS.SE\31-Mar-2022\0\\#P Ge
 om=AllCheck Guess=TCheck SCRF=Check Test GenChk RM062X/CC-pVTZ Freq\\G
 aussian input prepared by ASE\\0,1\O,-0.0018943823,0.3903233362,0.\H,-
 0.7586430526,-0.1985431842,0.\H,0.7605374349,-0.1917801521,0.\\Version
 =EM64L-G16RevA.03\State=1-A'\HF=-76.4252756\RMSD=8.625e-10\RMSF=2.021e
 -04\ZeroPoint=0.0215858\Thermal=0.0244213\Dipole=0.0036608,-0.771002,0
 .\DipoleDeriv=-0.5146881,-0.0005859,0.,-0.0007907,-0.3786645,0.,0.,0.,
 -0.6964302,0.2579242,-0.0584192,0.,-0.0699832,0.1887286,0.,0.,0.,0.348
 2435,0.2567639,0.0590051,0.,0.0707739,0.189936,0.,0.,0.,0.3481867\Pola
 r=8.4100662,0.0039825,7.1132484,0.,0.,5.4101538\Quadrupole=1.2285856,-
 0.1665615,-1.0620241,0.0060439,0.,0.\PG=CS [SG(H2O1)]\NImag=0\\0.70063
 264,0.00186797,0.46467133,0.,0.,0.00142272,-0.34851204,-0.21115915,0.,
 0.37908529,-0.27067357,-0.23475274,0.,0.24110453,0.22261490,0.,0.,-0.0
 0060342,0.,0.,0.00051015,-0.35212061,0.20929118,0.,-0.03057325,0.02956
 903,0.,0.38269386,0.26880559,-0.22991860,0.,-0.02994538,0.01213783,0.,
 -0.23886021,0.21778076,0.,0.,-0.00081930,0.,0.,0.00009327,0.,0.,0.0007
 2603\\-0.00031275,0.00035723,0.,0.00013581,-0.00005875,0.,0.00017694,-
 0.00029848,0.\\\@


     SCHOPENHAUER'S LAW OF ENTROPY
 IF YOU PUT A SPOONFUL OF WINE IN A BARREL FULL
 OF SEWAGE, YOU GET SEWAGE.
 IF YOU PUT A SPOONFUL OF SEWAGE IN A BARREL FULL
 OF WINE, YOU GET SEWAGE.
 Job cpu time:       0 days  0 hours  7 minutes 24.5 seconds.
 Elapsed time:       0 days  0 hours  0 minutes 28.5 seconds.
 File lengths (MBytes):  RWF=    272 Int=      0 D2E=      0 Chk=     32 Scr=     32
 Normal termination of Gaussian 16 at Thu Mar 31 22:22:24 2022.
